   2   2   1   0
  0.2045837E+02  0.3867871E-09  0.3867872E-09  0.3867870E-09  0.5000000E-15
   1.0000000000000000E-004
  CAR 
 unknown system                          
     30.19334239     -7.93209274  301      5.61115872      1.00000000
     -7.932  0.0000E+00  0.0000E+00  0.0000E+00  0.0000E+00
     -7.805  0.0000E+00  0.0000E+00  0.0000E+00  0.0000E+00
     -7.678  0.0000E+00  0.0000E+00  0.0000E+00  0.0000E+00
     -7.551  0.0000E+00  0.0000E+00  0.0000E+00  0.0000E+00
     -7.424  0.0000E+00  0.0000E+00  0.0000E+00  0.0000E+00
     -7.297  0.0000E+00  0.0000E+00  0.0000E+00  0.0000E+00
     -7.170  0.0000E+00  0.0000E+00  0.0000E+00  0.0000E+00
     -7.042  0.0000E+00  0.0000E+00  0.0000E+00  0.0000E+00
     -6.915  0.0000E+00  0.0000E+00  0.0000E+00  0.0000E+00
     -6.788  0.0000E+00  0.0000E+00  0.0000E+00  0.0000E+00
     -6.661  0.0000E+00  0.0000E+00  0.0000E+00  0.0000E+00
     -6.534  0.0000E+00  0.0000E+00  0.0000E+00  0.0000E+00
     -6.407  0.0000E+00  0.0000E+00  0.0000E+00  0.0000E+00
     -6.280  0.0000E+00  0.0000E+00  0.0000E+00  0.0000E+00
     -6.153  0.3164E-04  0.3164E-04  0.4874E-06  0.4875E-06
     -6.026  0.4450E-03  0.4450E-03  0.2571E-04  0.2571E-04
     -5.899  0.8961E-03  0.8961E-03  0.1251E-03  0.1251E-03
     -5.772  0.1017E-02  0.1017E-02  0.2427E-03  0.2428E-03
     -5.645  0.1233E-02  0.1233E-02  0.3855E-03  0.3855E-03
     -5.517  0.1467E-02  0.1467E-02  0.5568E-03  0.5568E-03
     -5.390  0.1666E-02  0.1666E-02  0.7570E-03  0.7570E-03
     -5.263  0.1760E-02  0.1760E-02  0.9758E-03  0.9758E-03
     -5.136  0.1889E-02  0.1889E-02  0.1206E-02  0.1206E-02
     -5.009  0.2053E-02  0.2053E-02  0.1457E-02  0.1457E-02
     -4.882  0.2224E-02  0.2224E-02  0.1729E-02  0.1729E-02
     -4.755  0.2403E-02  0.2403E-02  0.2022E-02  0.2023E-02
     -4.628  0.2591E-02  0.2591E-02  0.2340E-02  0.2340E-02
     -4.501  0.2763E-02  0.2763E-02  0.2679E-02  0.2679E-02
     -4.374  0.2994E-02  0.2994E-02  0.3044E-02  0.3044E-02
     -4.247  0.3263E-02  0.3263E-02  0.3441E-02  0.3441E-02
     -4.120  0.3872E-02  0.3872E-02  0.3887E-02  0.3887E-02
     -3.992  0.4439E-02  0.4439E-02  0.4420E-02  0.4420E-02
     -3.865  0.4549E-02  0.4549E-02  0.4996E-02  0.4996E-02
     -3.738  0.4191E-02  0.4191E-02  0.5557E-02  0.5557E-02
     -3.611  0.4660E-02  0.4660E-02  0.6116E-02  0.6116E-02
     -3.484  0.4264E-02  0.4264E-02  0.6693E-02  0.6693E-02
     -3.357  0.3876E-02  0.3876E-02  0.7209E-02  0.7209E-02
     -3.230  0.3589E-02  0.3589E-02  0.7683E-02  0.7683E-02
     -3.103  0.3425E-02  0.3425E-02  0.8127E-02  0.8127E-02
     -2.976  0.3304E-02  0.3304E-02  0.8556E-02  0.8556E-02
     -2.849  0.3429E-02  0.3429E-02  0.8984E-02  0.8984E-02
     -2.722  0.3193E-02  0.3193E-02  0.9410E-02  0.9410E-02
     -2.595  0.2530E-02  0.2530E-02  0.9778E-02  0.9778E-02
     -2.467  0.1095E-02  0.1095E-02  0.1001E-01  0.1001E-01
     -2.340  0.3073E-03  0.3073E-03  0.1009E-01  0.1009E-01
     -2.213  0.0000E+00  0.0000E+00  0.1010E-01  0.1010E-01
     -2.086  0.0000E+00  0.0000E+00  0.1010E-01  0.1010E-01
     -1.959  0.0000E+00  0.0000E+00  0.1010E-01  0.1010E-01
     -1.832  0.2389E-03  0.2389E-03  0.1011E-01  0.1011E-01
     -1.705  0.6234E-03  0.6234E-03  0.1017E-01  0.1017E-01
     -1.578  0.1125E-02  0.1125E-02  0.1028E-01  0.1028E-01
     -1.451  0.2980E-02  0.2980E-02  0.1051E-01  0.1051E-01
     -1.324  0.3646E-02  0.3646E-02  0.1092E-01  0.1092E-01
     -1.197  0.4148E-02  0.4148E-02  0.1142E-01  0.1142E-01
     -1.070  0.6122E-02  0.6122E-02  0.1201E-01  0.1201E-01
     -0.942  0.8034E-02  0.8034E-02  0.1296E-01  0.1296E-01
     -0.815  0.6149E-02  0.6149E-02  0.1388E-01  0.1388E-01
     -0.688  0.4233E-02  0.4233E-02  0.1450E-01  0.1450E-01
     -0.561  0.3541E-02  0.3541E-02  0.1499E-01  0.1499E-01
     -0.434  0.3111E-02  0.3111E-02  0.1541E-01  0.1541E-01
     -0.307  0.2846E-02  0.2846E-02  0.1579E-01  0.1579E-01
     -0.180  0.2634E-02  0.2634E-02  0.1614E-01  0.1614E-01
     -0.053  0.2442E-02  0.2442E-02  0.1646E-01  0.1646E-01
      0.074  0.2261E-02  0.2261E-02  0.1676E-01  0.1676E-01
      0.201  0.2093E-02  0.2093E-02  0.1704E-01  0.1704E-01
      0.328  0.1939E-02  0.1939E-02  0.1729E-01  0.1729E-01
      0.456  0.1729E-02  0.1729E-02  0.1753E-01  0.1753E-01
      0.583  0.1496E-02  0.1496E-02  0.1773E-01  0.1773E-01
      0.710  0.1365E-02  0.1365E-02  0.1791E-01  0.1791E-01
      0.837  0.1308E-02  0.1308E-02  0.1808E-01  0.1808E-01
      0.964  0.1257E-02  0.1257E-02  0.1825E-01  0.1825E-01
      1.091  0.1209E-02  0.1209E-02  0.1840E-01  0.1840E-01
      1.218  0.1162E-02  0.1162E-02  0.1855E-01  0.1855E-01
      1.345  0.1114E-02  0.1114E-02  0.1870E-01  0.1870E-01
      1.472  0.1870E-02  0.1870E-02  0.1887E-01  0.1887E-01
      1.599  0.6018E-02  0.6018E-02  0.1933E-01  0.1933E-01
      1.726  0.6261E-02  0.6261E-02  0.2008E-01  0.2008E-01
      1.853  0.6462E-02  0.6462E-02  0.2090E-01  0.2090E-01
      1.981  0.5732E-02  0.5732E-02  0.2168E-01  0.2168E-01
      2.108  0.5603E-02  0.5603E-02  0.2243E-01  0.2243E-01
      2.235  0.5079E-02  0.5079E-02  0.2308E-01  0.2308E-01
      2.362  0.4983E-02  0.4983E-02  0.2372E-01  0.2372E-01
      2.489  0.4852E-02  0.4852E-02  0.2435E-01  0.2435E-01
      2.616  0.7975E-02  0.7975E-02  0.2528E-01  0.2528E-01
      2.743  0.6980E-02  0.6980E-02  0.2612E-01  0.2612E-01
      2.870  0.8030E-02  0.8030E-02  0.2707E-01  0.2707E-01
      2.997  0.8321E-02  0.8321E-02  0.2816E-01  0.2816E-01
      3.124  0.7738E-02  0.7738E-02  0.2915E-01  0.2915E-01
      3.251  0.7609E-02  0.7609E-02  0.3013E-01  0.3013E-01
      3.378  0.7591E-02  0.7591E-02  0.3109E-01  0.3109E-01
      3.506  0.7548E-02  0.7548E-02  0.3205E-01  0.3205E-01
      3.633  0.7450E-02  0.7450E-02  0.3300E-01  0.3300E-01
      3.760  0.7244E-02  0.7244E-02  0.3394E-01  0.3394E-01
      3.887  0.7014E-02  0.7014E-02  0.3485E-01  0.3485E-01
      4.014  0.6813E-02  0.6813E-02  0.3572E-01  0.3572E-01
      4.141  0.6894E-02  0.6894E-02  0.3659E-01  0.3659E-01
      4.268  0.6231E-02  0.6231E-02  0.3743E-01  0.3743E-01
      4.395  0.5139E-02  0.5139E-02  0.3816E-01  0.3816E-01
      4.522  0.3975E-02  0.3975E-02  0.3873E-01  0.3873E-01
      4.649  0.2979E-02  0.2979E-02  0.3918E-01  0.3918E-01
      4.776  0.2287E-02  0.2287E-02  0.3950E-01  0.3950E-01
      4.903  0.1916E-02  0.1916E-02  0.3977E-01  0.3977E-01
      5.031  0.1622E-02  0.1622E-02  0.3999E-01  0.3999E-01
      5.158  0.1405E-02  0.1405E-02  0.4018E-01  0.4018E-01
      5.285  0.6575E-03  0.6575E-03  0.4033E-01  0.4033E-01
      5.412  0.2454E-03  0.2454E-03  0.4039E-01  0.4039E-01
      5.539  0.3239E-04  0.3239E-04  0.4040E-01  0.4040E-01
      5.666  0.0000E+00  0.0000E+00  0.4040E-01  0.4040E-01
      5.793  0.0000E+00  0.0000E+00  0.4040E-01  0.4040E-01
      5.920  0.0000E+00  0.0000E+00  0.4040E-01  0.4040E-01
      6.047  0.0000E+00  0.0000E+00  0.4040E-01  0.4040E-01
      6.174  0.0000E+00  0.0000E+00  0.4040E-01  0.4040E-01
      6.301  0.2710E-03  0.2710E-03  0.4041E-01  0.4041E-01
      6.428  0.5867E-03  0.5867E-03  0.4047E-01  0.4047E-01
      6.556  0.8175E-03  0.8175E-03  0.4056E-01  0.4056E-01
      6.683  0.1214E-02  0.1214E-02  0.4069E-01  0.4069E-01
      6.810  0.1505E-02  0.1505E-02  0.4086E-01  0.4086E-01
      6.937  0.1848E-02  0.1848E-02  0.4107E-01  0.4107E-01
      7.064  0.2245E-02  0.2245E-02  0.4133E-01  0.4133E-01
      7.191  0.2788E-02  0.2788E-02  0.4165E-01  0.4165E-01
      7.318  0.3620E-02  0.3620E-02  0.4205E-01  0.4205E-01
      7.445  0.4682E-02  0.4682E-02  0.4258E-01  0.4258E-01
      7.572  0.6207E-02  0.6207E-02  0.4326E-01  0.4326E-01
      7.699  0.8563E-02  0.8563E-02  0.4419E-01  0.4419E-01
      7.826  0.9864E-02  0.9864E-02  0.4539E-01  0.4539E-01
      7.954  0.1051E-01  0.1051E-01  0.4669E-01  0.4669E-01
      8.081  0.9993E-02  0.9993E-02  0.4800E-01  0.4800E-01
      8.208  0.9573E-02  0.9573E-02  0.4924E-01  0.4924E-01
      8.335  0.7733E-02  0.7733E-02  0.5033E-01  0.5033E-01
      8.462  0.5592E-02  0.5592E-02  0.5116E-01  0.5116E-01
      8.589  0.3663E-02  0.3663E-02  0.5173E-01  0.5173E-01
      8.716  0.2803E-02  0.2803E-02  0.5210E-01  0.5210E-01
      8.843  0.3809E-02  0.3809E-02  0.5252E-01  0.5252E-01
      8.970  0.4951E-02  0.4951E-02  0.5308E-01  0.5308E-01
      9.097  0.7781E-02  0.7781E-02  0.5384E-01  0.5384E-01
      9.224  0.1408E-01  0.1408E-01  0.5522E-01  0.5522E-01
      9.351  0.1685E-01  0.1685E-01  0.5736E-01  0.5736E-01
      9.479  0.8203E-02  0.8203E-02  0.5929E-01  0.5929E-01
      9.606  0.6965E-02  0.6965E-02  0.6020E-01  0.6020E-01
      9.733  0.6871E-02  0.6871E-02  0.6108E-01  0.6108E-01
      9.860  0.6592E-02  0.6592E-02  0.6194E-01  0.6194E-01
      9.987  0.5995E-02  0.5995E-02  0.6274E-01  0.6274E-01
     10.114  0.5191E-02  0.5191E-02  0.6346E-01  0.6346E-01
     10.241  0.4916E-02  0.4916E-02  0.6409E-01  0.6409E-01
     10.368  0.4926E-02  0.4926E-02  0.6472E-01  0.6472E-01
     10.495  0.4819E-02  0.4819E-02  0.6535E-01  0.6535E-01
     10.622  0.4283E-02  0.4283E-02  0.6593E-01  0.6593E-01
     10.749  0.3788E-02  0.3788E-02  0.6644E-01  0.6644E-01
     10.876  0.3527E-02  0.3527E-02  0.6690E-01  0.6690E-01
     11.004  0.3499E-02  0.3499E-02  0.6734E-01  0.6734E-01
     11.131  0.6980E-02  0.6980E-02  0.6800E-01  0.6800E-01
     11.258  0.6950E-02  0.6950E-02  0.6892E-01  0.6892E-01
     11.385  0.6266E-02  0.6266E-02  0.6975E-01  0.6975E-01
     11.512  0.5809E-02  0.5809E-02  0.7049E-01  0.7049E-01
     11.639  0.6084E-02  0.6084E-02  0.7124E-01  0.7124E-01
     11.766  0.6920E-02  0.6920E-02  0.7206E-01  0.7206E-01
     11.893  0.8215E-02  0.8215E-02  0.7302E-01  0.7302E-01
     12.020  0.9049E-02  0.9049E-02  0.7413E-01  0.7413E-01
     12.147  0.7186E-02  0.7186E-02  0.7527E-01  0.7527E-01
     12.274  0.5880E-02  0.5880E-02  0.7605E-01  0.7605E-01
     12.401  0.5855E-02  0.5855E-02  0.7679E-01  0.7679E-01
     12.529  0.5851E-02  0.5851E-02  0.7754E-01  0.7754E-01
     12.656  0.5714E-02  0.5714E-02  0.7827E-01  0.7827E-01
     12.783  0.5540E-02  0.5540E-02  0.7899E-01  0.7899E-01
     12.910  0.5440E-02  0.5440E-02  0.7969E-01  0.7969E-01
     13.037  0.5270E-02  0.5270E-02  0.8037E-01  0.8037E-01
     13.164  0.5071E-02  0.5071E-02  0.8103E-01  0.8103E-01
     13.291  0.4880E-02  0.4880E-02  0.8166E-01  0.8166E-01
     13.418  0.4965E-02  0.4965E-02  0.8227E-01  0.8227E-01
     13.545  0.5074E-02  0.5074E-02  0.8292E-01  0.8292E-01
     13.672  0.4733E-02  0.4733E-02  0.8354E-01  0.8354E-01
     13.799  0.4671E-02  0.4671E-02  0.8413E-01  0.8413E-01
     13.926  0.5943E-02  0.5943E-02  0.8478E-01  0.8478E-01
     14.054  0.7415E-02  0.7415E-02  0.8564E-01  0.8564E-01
     14.181  0.7234E-02  0.7234E-02  0.8655E-01  0.8655E-01
     14.308  0.7496E-02  0.7496E-02  0.8748E-01  0.8748E-01
     14.435  0.8067E-02  0.8067E-02  0.8848E-01  0.8848E-01
     14.562  0.8649E-02  0.8649E-02  0.8950E-01  0.8950E-01
     14.689  0.1075E-01  0.1075E-01  0.9086E-01  0.9086E-01
     14.816  0.8167E-02  0.8167E-02  0.9194E-01  0.9194E-01
     14.943  0.7635E-02  0.7635E-02  0.9294E-01  0.9294E-01
     15.070  0.7441E-02  0.7441E-02  0.9389E-01  0.9389E-01
     15.197  0.7645E-02  0.7645E-02  0.9485E-01  0.9485E-01
     15.324  0.7566E-02  0.7566E-02  0.9582E-01  0.9582E-01
     15.452  0.7185E-02  0.7185E-02  0.9676E-01  0.9676E-01
     15.579  0.7172E-02  0.7172E-02  0.9766E-01  0.9766E-01
     15.706  0.6686E-02  0.6686E-02  0.9855E-01  0.9855E-01
     15.833  0.6651E-02  0.6651E-02  0.9942E-01  0.9942E-01
     15.960  0.5920E-02  0.5920E-02  0.1002E+00  0.1002E+00
     16.087  0.5789E-02  0.5789E-02  0.1009E+00  0.1009E+00
     16.214  0.6034E-02  0.6034E-02  0.1017E+00  0.1017E+00
     16.341  0.6650E-02  0.6650E-02  0.1025E+00  0.1025E+00
     16.468  0.6199E-02  0.6199E-02  0.1033E+00  0.1033E+00
     16.595  0.5638E-02  0.5638E-02  0.1041E+00  0.1041E+00
     16.722  0.4285E-02  0.4285E-02  0.1047E+00  0.1047E+00
     16.849  0.3769E-02  0.3769E-02  0.1052E+00  0.1052E+00
     16.977  0.3685E-02  0.3685E-02  0.1057E+00  0.1057E+00
     17.104  0.4094E-02  0.4094E-02  0.1062E+00  0.1062E+00
     17.231  0.4614E-02  0.4614E-02  0.1067E+00  0.1067E+00
     17.358  0.4916E-02  0.4916E-02  0.1073E+00  0.1073E+00
     17.485  0.5006E-02  0.5006E-02  0.1080E+00  0.1080E+00
     17.612  0.5061E-02  0.5061E-02  0.1086E+00  0.1086E+00
     17.739  0.9883E-02  0.9883E-02  0.1095E+00  0.1095E+00
     17.866  0.9723E-02  0.9723E-02  0.1108E+00  0.1108E+00
     17.993  0.9081E-02  0.9081E-02  0.1120E+00  0.1120E+00
     18.120  0.8751E-02  0.8751E-02  0.1131E+00  0.1131E+00
     18.247  0.8835E-02  0.8835E-02  0.1142E+00  0.1142E+00
     18.374  0.8714E-02  0.8714E-02  0.1153E+00  0.1153E+00
     18.502  0.8518E-02  0.8518E-02  0.1164E+00  0.1164E+00
     18.629  0.8144E-02  0.8144E-02  0.1175E+00  0.1175E+00
     18.756  0.8943E-02  0.8943E-02  0.1185E+00  0.1185E+00
     18.883  0.9330E-02  0.9330E-02  0.1197E+00  0.1197E+00
     19.010  0.9746E-02  0.9746E-02  0.1209E+00  0.1209E+00
     19.137  0.9577E-02  0.9577E-02  0.1221E+00  0.1221E+00
     19.264  0.1053E-01  0.1053E-01  0.1234E+00  0.1234E+00
     19.391  0.1104E-01  0.1104E-01  0.1248E+00  0.1248E+00
     19.518  0.1078E-01  0.1078E-01  0.1261E+00  0.1261E+00
     19.645  0.1098E-01  0.1098E-01  0.1275E+00  0.1275E+00
     19.772  0.9963E-02  0.9963E-02  0.1289E+00  0.1289E+00
     19.899  0.8606E-02  0.8606E-02  0.1300E+00  0.1300E+00
     20.027  0.6578E-02  0.6578E-02  0.1310E+00  0.1310E+00
     20.154  0.5994E-02  0.5994E-02  0.1318E+00  0.1318E+00
     20.281  0.5670E-02  0.5670E-02  0.1325E+00  0.1325E+00
     20.408  0.5381E-02  0.5381E-02  0.1332E+00  0.1332E+00
     20.535  0.5851E-02  0.5851E-02  0.1339E+00  0.1339E+00
     20.662  0.5945E-02  0.5945E-02  0.1347E+00  0.1347E+00
     20.789  0.5518E-02  0.5517E-02  0.1354E+00  0.1354E+00
     20.916  0.5372E-02  0.5371E-02  0.1361E+00  0.1361E+00
     21.043  0.5385E-02  0.5385E-02  0.1368E+00  0.1368E+00
     21.170  0.5420E-02  0.5420E-02  0.1375E+00  0.1375E+00
     21.297  0.5426E-02  0.5426E-02  0.1382E+00  0.1382E+00
     21.424  0.5298E-02  0.5298E-02  0.1389E+00  0.1389E+00
     21.552  0.6199E-02  0.6199E-02  0.1396E+00  0.1396E+00
     21.679  0.7210E-02  0.7210E-02  0.1404E+00  0.1404E+00
     21.806  0.7207E-02  0.7207E-02  0.1414E+00  0.1414E+00
     21.933  0.6585E-02  0.6585E-02  0.1423E+00  0.1423E+00
     22.060  0.6352E-02  0.6352E-02  0.1431E+00  0.1431E+00
     22.187  0.6291E-02  0.6291E-02  0.1439E+00  0.1439E+00
     22.314  0.8108E-02  0.8109E-02  0.1448E+00  0.1448E+00
     22.441  0.8390E-02  0.8391E-02  0.1459E+00  0.1459E+00
     22.568  0.7914E-02  0.7916E-02  0.1469E+00  0.1469E+00
     22.695  0.7482E-02  0.7485E-02  0.1479E+00  0.1479E+00
     22.822  0.7726E-02  0.7788E-02  0.1488E+00  0.1488E+00
     22.950  0.1527E-01  0.1507E-01  0.1502E+00  0.1503E+00
     23.077  0.1054E-01  0.1054E-01  0.1517E+00  0.1517E+00
     23.204  0.1195E-01  0.1196E-01  0.1531E+00  0.1531E+00
     23.331  0.1357E-01  0.1361E-01  0.1547E+00  0.1548E+00
     23.458  0.1103E-01  0.1101E-01  0.1563E+00  0.1563E+00
     23.585  0.9473E-02  0.9440E-02  0.1576E+00  0.1576E+00
     23.712  0.7946E-02  0.7917E-02  0.1587E+00  0.1587E+00
     23.839  0.3389E-02  0.3439E-02  0.1595E+00  0.1595E+00
     23.966  0.2014E-02  0.1999E-02  0.1598E+00  0.1598E+00
     24.093  0.1617E-02  0.1614E-02  0.1600E+00  0.1600E+00
     24.220  0.1486E-02  0.1484E-02  0.1602E+00  0.1602E+00
     24.347  0.1359E-02  0.1358E-02  0.1604E+00  0.1604E+00
     24.475  0.1238E-02  0.1236E-02  0.1605E+00  0.1605E+00
     24.602  0.1121E-02  0.1120E-02  0.1607E+00  0.1607E+00
     24.729  0.1008E-02  0.1008E-02  0.1608E+00  0.1608E+00
     24.856  0.9009E-03  0.9009E-03  0.1609E+00  0.1609E+00
     24.983  0.7983E-03  0.7985E-03  0.1610E+00  0.1610E+00
     25.110  0.7003E-03  0.7008E-03  0.1611E+00  0.1611E+00
     25.237  0.6072E-03  0.6079E-03  0.1612E+00  0.1612E+00
     25.364  0.1410E-02  0.1526E-02  0.1614E+00  0.1614E+00
     25.491  0.1965E-03  0.1964E-03  0.1614E+00  0.1614E+00
     25.618  0.1836E-03  0.1836E-03  0.1615E+00  0.1615E+00
     25.745  0.1656E-03  0.1656E-03  0.1615E+00  0.1615E+00
     25.872  0.1424E-03  0.1424E-03  0.1615E+00  0.1615E+00
     26.000  0.1171E-03  0.1171E-03  0.1615E+00  0.1615E+00
     26.127  0.1053E-03  0.1053E-03  0.1615E+00  0.1615E+00
     26.254  0.9416E-04  0.9415E-04  0.1615E+00  0.1615E+00
     26.381  0.8362E-04  0.8361E-04  0.1616E+00  0.1616E+00
     26.508  0.7371E-04  0.7371E-04  0.1616E+00  0.1616E+00
     26.635  0.6442E-04  0.6442E-04  0.1616E+00  0.1616E+00
     26.762  0.5576E-04  0.5577E-04  0.1616E+00  0.1616E+00
     26.889  0.4772E-04  0.4773E-04  0.1616E+00  0.1616E+00
     27.016  0.4031E-04  0.4032E-04  0.1616E+00  0.1616E+00
     27.143  0.3353E-04  0.3354E-04  0.1616E+00  0.1616E+00
     27.270  0.2737E-04  0.2738E-04  0.1616E+00  0.1616E+00
     27.397  0.2183E-04  0.2184E-04  0.1616E+00  0.1616E+00
     27.525  0.1692E-04  0.1693E-04  0.1616E+00  0.1616E+00
     27.652  0.1263E-04  0.1265E-04  0.1616E+00  0.1616E+00
     27.779  0.8970E-05  0.8983E-05  0.1616E+00  0.1616E+00
     27.906  0.5934E-05  0.5946E-05  0.1616E+00  0.1616E+00
     28.033  0.3523E-05  0.3533E-05  0.1616E+00  0.1616E+00
     28.160  0.1737E-05  0.1745E-05  0.1616E+00  0.1616E+00
     28.287  0.5760E-06  0.5807E-06  0.1616E+00  0.1616E+00
     28.414  0.3997E-07  0.4129E-07  0.1616E+00  0.1616E+00
     28.541  0.0000E+00  0.0000E+00  0.1616E+00  0.1616E+00
     28.668  0.0000E+00  0.0000E+00  0.1616E+00  0.1616E+00
     28.795  0.0000E+00  0.0000E+00  0.1616E+00  0.1616E+00
     28.922  0.0000E+00  0.0000E+00  0.1616E+00  0.1616E+00
     29.050  0.0000E+00  0.0000E+00  0.1616E+00  0.1616E+00
     29.177  0.0000E+00  0.0000E+00  0.1616E+00  0.1616E+00
     29.304  0.0000E+00  0.0000E+00  0.1616E+00  0.1616E+00
     29.431  0.0000E+00  0.0000E+00  0.1616E+00  0.1616E+00
     29.558  0.0000E+00  0.0000E+00  0.1616E+00  0.1616E+00
     29.685  0.0000E+00  0.0000E+00  0.1616E+00  0.1616E+00
     29.812  0.0000E+00  0.0000E+00  0.1616E+00  0.1616E+00
     29.939  0.0000E+00  0.0000E+00  0.1616E+00  0.1616E+00
     30.066  0.0000E+00  0.0000E+00  0.1616E+00  0.1616E+00
     30.193  0.0000E+00  0.0000E+00  0.1616E+00  0.1616E+00
     30.19334239     -7.93209274  301      5.61115872      1.00000000
     -7.932  0.0000E+00  0.0000E+00  0.0000E+00  0.0000E+00  0.0000E+00  0.0000E+00  0.0000E+00  0.0000E+00  0.0000E+00  0.0000E+00  0.0000E+00  0.0000E+00  0.0000E+00  0.0000E+00  0.0000E+00  0.0000E+00  0.0000E+00  0.0000E+00
     -7.805  0.0000E+00  0.0000E+00  0.0000E+00  0.0000E+00  0.0000E+00  0.0000E+00  0.0000E+00  0.0000E+00  0.0000E+00  0.0000E+00  0.0000E+00  0.0000E+00  0.0000E+00  0.0000E+00  0.0000E+00  0.0000E+00  0.0000E+00  0.0000E+00
     -7.678  0.0000E+00  0.0000E+00  0.0000E+00  0.0000E+00  0.0000E+00  0.0000E+00  0.0000E+00  0.0000E+00  0.0000E+00  0.0000E+00  0.0000E+00  0.0000E+00  0.0000E+00  0.0000E+00  0.0000E+00  0.0000E+00  0.0000E+00  0.0000E+00
     -7.551  0.0000E+00  0.0000E+00  0.0000E+00  0.0000E+00  0.0000E+00  0.0000E+00  0.0000E+00  0.0000E+00  0.0000E+00  0.0000E+00  0.0000E+00  0.0000E+00  0.0000E+00  0.0000E+00  0.0000E+00  0.0000E+00  0.0000E+00  0.0000E+00
     -7.424  0.0000E+00  0.0000E+00  0.0000E+00  0.0000E+00  0.0000E+00  0.0000E+00  0.0000E+00  0.0000E+00  0.0000E+00  0.0000E+00  0.0000E+00  0.0000E+00  0.0000E+00  0.0000E+00  0.0000E+00  0.0000E+00  0.0000E+00  0.0000E+00
     -7.297  0.0000E+00  0.0000E+00  0.0000E+00  0.0000E+00  0.0000E+00  0.0000E+00  0.0000E+00  0.0000E+00  0.0000E+00  0.0000E+00  0.0000E+00  0.0000E+00  0.0000E+00  0.0000E+00  0.0000E+00  0.0000E+00  0.0000E+00  0.0000E+00
     -7.170  0.0000E+00  0.0000E+00  0.0000E+00  0.0000E+00  0.0000E+00  0.0000E+00  0.0000E+00  0.0000E+00  0.0000E+00  0.0000E+00  0.0000E+00  0.0000E+00  0.0000E+00  0.0000E+00  0.0000E+00  0.0000E+00  0.0000E+00  0.0000E+00
     -7.042  0.0000E+00  0.0000E+00  0.0000E+00  0.0000E+00  0.0000E+00  0.0000E+00  0.0000E+00  0.0000E+00  0.0000E+00  0.0000E+00  0.0000E+00  0.0000E+00  0.0000E+00  0.0000E+00  0.0000E+00  0.0000E+00  0.0000E+00  0.0000E+00
     -6.915  0.0000E+00  0.0000E+00  0.0000E+00  0.0000E+00  0.0000E+00  0.0000E+00  0.0000E+00  0.0000E+00  0.0000E+00  0.0000E+00  0.0000E+00  0.0000E+00  0.0000E+00  0.0000E+00  0.0000E+00  0.0000E+00  0.0000E+00  0.0000E+00
     -6.788  0.0000E+00  0.0000E+00  0.0000E+00  0.0000E+00  0.0000E+00  0.0000E+00  0.0000E+00  0.0000E+00  0.0000E+00  0.0000E+00  0.0000E+00  0.0000E+00  0.0000E+00  0.0000E+00  0.0000E+00  0.0000E+00  0.0000E+00  0.0000E+00
     -6.661  0.0000E+00  0.0000E+00  0.0000E+00  0.0000E+00  0.0000E+00  0.0000E+00  0.0000E+00  0.0000E+00  0.0000E+00  0.0000E+00  0.0000E+00  0.0000E+00  0.0000E+00  0.0000E+00  0.0000E+00  0.0000E+00  0.0000E+00  0.0000E+00
     -6.534  0.0000E+00  0.0000E+00  0.0000E+00  0.0000E+00  0.0000E+00  0.0000E+00  0.0000E+00  0.0000E+00  0.0000E+00  0.0000E+00  0.0000E+00  0.0000E+00  0.0000E+00  0.0000E+00  0.0000E+00  0.0000E+00  0.0000E+00  0.0000E+00
     -6.407  0.0000E+00  0.0000E+00  0.0000E+00  0.0000E+00  0.0000E+00  0.0000E+00  0.0000E+00  0.0000E+00  0.0000E+00  0.0000E+00  0.0000E+00  0.0000E+00  0.0000E+00  0.0000E+00  0.0000E+00  0.0000E+00  0.0000E+00  0.0000E+00
     -6.280  0.0000E+00  0.0000E+00  0.0000E+00  0.0000E+00  0.0000E+00  0.0000E+00  0.0000E+00  0.0000E+00  0.0000E+00  0.0000E+00  0.0000E+00  0.0000E+00  0.0000E+00  0.0000E+00  0.0000E+00  0.0000E+00  0.0000E+00  0.0000E+00
     -6.153  0.6606E-03  0.6607E-03  0.2430E-05  0.2430E-05  0.2430E-05  0.2430E-05  0.2430E-05  0.2430E-05  0.0000E+00  0.0000E+00  0.0000E+00  0.0000E+00  0.0000E+00  0.0000E+00  0.0000E+00  0.0000E+00  0.0000E+00  0.0000E+00
     -6.026  0.9290E-02  0.9290E-02  0.3417E-04  0.3417E-04  0.3417E-04  0.3417E-04  0.3417E-04  0.3417E-04  0.0000E+00  0.0000E+00  0.0000E+00  0.0000E+00  0.0000E+00  0.0000E+00  0.0000E+00  0.0000E+00  0.0000E+00  0.0000E+00
     -5.899  0.1867E-01  0.1867E-01  0.1060E-03  0.1060E-03  0.1060E-03  0.1060E-03  0.1060E-03  0.1060E-03  0.0000E+00  0.0000E+00  0.0000E+00  0.0000E+00  0.0000E+00  0.0000E+00  0.0000E+00  0.0000E+00  0.0000E+00  0.0000E+00
     -5.772  0.2111E-01  0.2111E-01  0.1803E-03  0.1803E-03  0.1803E-03  0.1803E-03  0.1803E-03  0.1803E-03  0.0000E+00  0.0000E+00  0.0000E+00  0.0000E+00  0.0000E+00  0.0000E+00  0.0000E+00  0.0000E+00  0.0000E+00  0.0000E+00
     -5.645  0.2555E-01  0.2555E-01  0.2582E-03  0.2582E-03  0.2582E-03  0.2582E-03  0.2582E-03  0.2582E-03  0.0000E+00  0.0000E+00  0.0000E+00  0.0000E+00  0.0000E+00  0.0000E+00  0.0000E+00  0.0000E+00  0.0000E+00  0.0000E+00
     -5.517  0.3038E-01  0.3038E-01  0.3436E-03  0.3436E-03  0.3436E-03  0.3436E-03  0.3436E-03  0.3436E-03  0.0000E+00  0.0000E+00  0.0000E+00  0.0000E+00  0.0000E+00  0.0000E+00  0.0000E+00  0.0000E+00  0.0000E+00  0.0000E+00
     -5.390  0.3445E-01  0.3445E-01  0.4472E-03  0.4472E-03  0.4472E-03  0.4472E-03  0.4472E-03  0.4472E-03  0.0000E+00  0.0000E+00  0.0000E+00  0.0000E+00  0.0000E+00  0.0000E+00  0.0000E+00  0.0000E+00  0.0000E+00  0.0000E+00
     -5.263  0.3632E-01  0.3632E-01  0.5831E-03  0.5831E-03  0.5831E-03  0.5831E-03  0.5831E-03  0.5831E-03  0.0000E+00  0.0000E+00  0.0000E+00  0.0000E+00  0.0000E+00  0.0000E+00  0.0000E+00  0.0000E+00  0.0000E+00  0.0000E+00
     -5.136  0.3894E-01  0.3894E-01  0.7123E-03  0.7123E-03  0.7123E-03  0.7123E-03  0.7123E-03  0.7123E-03  0.0000E+00  0.0000E+00  0.0000E+00  0.0000E+00  0.0000E+00  0.0000E+00  0.0000E+00  0.0000E+00  0.0000E+00  0.0000E+00
     -5.009  0.4231E-01  0.4231E-01  0.8384E-03  0.8384E-03  0.8384E-03  0.8384E-03  0.8384E-03  0.8384E-03  0.0000E+00  0.0000E+00  0.0000E+00  0.0000E+00  0.0000E+00  0.0000E+00  0.0000E+00  0.0000E+00  0.0000E+00  0.0000E+00
     -4.882  0.4583E-01  0.4583E-01  0.9698E-03  0.9699E-03  0.9698E-03  0.9698E-03  0.9698E-03  0.9699E-03  0.0000E+00  0.0000E+00  0.0000E+00  0.0000E+00  0.0000E+00  0.0000E+00  0.0000E+00  0.0000E+00  0.0000E+00  0.0000E+00
     -4.755  0.4953E-01  0.4953E-01  0.1107E-02  0.1107E-02  0.1107E-02  0.1107E-02  0.1107E-02  0.1107E-02  0.0000E+00  0.0000E+00  0.0000E+00  0.0000E+00  0.0000E+00  0.0000E+00  0.0000E+00  0.0000E+00  0.0000E+00  0.0000E+00
     -4.628  0.5342E-01  0.5342E-01  0.1248E-02  0.1248E-02  0.1248E-02  0.1248E-02  0.1248E-02  0.1248E-02  0.0000E+00  0.0000E+00  0.0000E+00  0.0000E+00  0.0000E+00  0.0000E+00  0.0000E+00  0.0000E+00  0.0000E+00  0.0000E+00
     -4.501  0.5706E-01  0.5706E-01  0.1465E-02  0.1465E-02  0.1465E-02  0.1465E-02  0.1465E-02  0.1465E-02  0.0000E+00  0.0000E+00  0.0000E+00  0.0000E+00  0.0000E+00  0.0000E+00  0.0000E+00  0.0000E+00  0.0000E+00  0.0000E+00
     -4.374  0.6197E-01  0.6197E-01  0.1693E-02  0.1693E-02  0.1693E-02  0.1693E-02  0.1693E-02  0.1693E-02  0.0000E+00  0.0000E+00  0.0000E+00  0.0000E+00  0.0000E+00  0.0000E+00  0.0000E+00  0.0000E+00  0.0000E+00  0.0000E+00
     -4.247  0.6772E-01  0.6772E-01  0.1944E-02  0.1944E-02  0.1944E-02  0.1944E-02  0.1944E-02  0.1944E-02  0.0000E+00  0.0000E+00  0.0000E+00  0.0000E+00  0.0000E+00  0.0000E+00  0.0000E+00  0.0000E+00  0.0000E+00  0.0000E+00
     -4.120  0.8083E-01  0.8083E-01  0.2370E-02  0.2370E-02  0.2370E-02  0.2370E-02  0.2370E-02  0.2370E-02  0.0000E+00  0.0000E+00  0.0000E+00  0.0000E+00  0.0000E+00  0.0000E+00  0.0000E+00  0.0000E+00  0.0000E+00  0.0000E+00
     -3.992  0.9305E-01  0.9305E-01  0.2777E-02  0.2777E-02  0.2777E-02  0.2777E-02  0.2777E-02  0.2777E-02  0.0000E+00  0.0000E+00  0.0000E+00  0.0000E+00  0.0000E+00  0.0000E+00  0.0000E+00  0.0000E+00  0.0000E+00  0.0000E+00
     -3.865  0.9535E-01  0.9535E-01  0.2949E-02  0.2949E-02  0.2949E-02  0.2949E-02  0.2949E-02  0.2949E-02  0.0000E+00  0.0000E+00  0.0000E+00  0.0000E+00  0.0000E+00  0.0000E+00  0.0000E+00  0.0000E+00  0.0000E+00  0.0000E+00
     -3.738  0.8755E-01  0.8755E-01  0.2882E-02  0.2882E-02  0.2882E-02  0.2882E-02  0.2882E-02  0.2882E-02  0.0000E+00  0.0000E+00  0.0000E+00  0.0000E+00  0.0000E+00  0.0000E+00  0.0000E+00  0.0000E+00  0.0000E+00  0.0000E+00
     -3.611  0.9756E-01  0.9756E-01  0.3406E-02  0.3406E-02  0.3406E-02  0.3406E-02  0.3406E-02  0.3406E-02  0.0000E+00  0.0000E+00  0.0000E+00  0.0000E+00  0.0000E+00  0.0000E+00  0.0000E+00  0.0000E+00  0.0000E+00  0.0000E+00
     -3.484  0.8899E-01  0.8899E-01  0.3367E-02  0.3367E-02  0.3367E-02  0.3367E-02  0.3367E-02  0.3367E-02  0.0000E+00  0.0000E+00  0.0000E+00  0.0000E+00  0.0000E+00  0.0000E+00  0.0000E+00  0.0000E+00  0.0000E+00  0.0000E+00
     -3.357  0.8060E-01  0.8060E-01  0.3248E-02  0.3248E-02  0.3248E-02  0.3248E-02  0.3248E-02  0.3248E-02  0.0000E+00  0.0000E+00  0.0000E+00  0.0000E+00  0.0000E+00  0.0000E+00  0.0000E+00  0.0000E+00  0.0000E+00  0.0000E+00
     -3.230  0.7442E-01  0.7442E-01  0.3173E-02  0.3173E-02  0.3173E-02  0.3173E-02  0.3173E-02  0.3173E-02  0.0000E+00  0.0000E+00  0.0000E+00  0.0000E+00  0.0000E+00  0.0000E+00  0.0000E+00  0.0000E+00  0.0000E+00  0.0000E+00
     -3.103  0.7086E-01  0.7086E-01  0.3166E-02  0.3166E-02  0.3166E-02  0.3166E-02  0.3166E-02  0.3166E-02  0.0000E+00  0.0000E+00  0.0000E+00  0.0000E+00  0.0000E+00  0.0000E+00  0.0000E+00  0.0000E+00  0.0000E+00  0.0000E+00
     -2.976  0.6822E-01  0.6822E-01  0.3172E-02  0.3172E-02  0.3172E-02  0.3172E-02  0.3172E-02  0.3172E-02  0.0000E+00  0.0000E+00  0.0000E+00  0.0000E+00  0.0000E+00  0.0000E+00  0.0000E+00  0.0000E+00  0.0000E+00  0.0000E+00
     -2.849  0.7049E-01  0.7049E-01  0.3475E-02  0.3475E-02  0.3475E-02  0.3475E-02  0.3475E-02  0.3475E-02  0.0000E+00  0.0000E+00  0.0000E+00  0.0000E+00  0.0000E+00  0.0000E+00  0.0000E+00  0.0000E+00  0.0000E+00  0.0000E+00
     -2.722  0.6547E-01  0.6547E-01  0.3351E-02  0.3351E-02  0.3351E-02  0.3351E-02  0.3351E-02  0.3351E-02  0.0000E+00  0.0000E+00  0.0000E+00  0.0000E+00  0.0000E+00  0.0000E+00  0.0000E+00  0.0000E+00  0.0000E+00  0.0000E+00
     -2.595  0.5178E-01  0.5178E-01  0.2726E-02  0.2726E-02  0.2726E-02  0.2726E-02  0.2726E-02  0.2726E-02  0.0000E+00  0.0000E+00  0.0000E+00  0.0000E+00  0.0000E+00  0.0000E+00  0.0000E+00  0.0000E+00  0.0000E+00  0.0000E+00
     -2.467  0.2234E-01  0.2234E-01  0.1210E-02  0.1210E-02  0.1210E-02  0.1210E-02  0.1210E-02  0.1210E-02  0.0000E+00  0.0000E+00  0.0000E+00  0.0000E+00  0.0000E+00  0.0000E+00  0.0000E+00  0.0000E+00  0.0000E+00  0.0000E+00
     -2.340  0.6188E-02  0.6188E-02  0.3504E-03  0.3504E-03  0.3504E-03  0.3504E-03  0.3504E-03  0.3504E-03  0.0000E+00  0.0000E+00  0.0000E+00  0.0000E+00  0.0000E+00  0.0000E+00  0.0000E+00  0.0000E+00  0.0000E+00  0.0000E+00
     -2.213  0.0000E+00  0.0000E+00  0.0000E+00  0.0000E+00  0.0000E+00  0.0000E+00  0.0000E+00  0.0000E+00  0.0000E+00  0.0000E+00  0.0000E+00  0.0000E+00  0.0000E+00  0.0000E+00  0.0000E+00  0.0000E+00  0.0000E+00  0.0000E+00
     -2.086  0.0000E+00  0.0000E+00  0.0000E+00  0.0000E+00  0.0000E+00  0.0000E+00  0.0000E+00  0.0000E+00  0.0000E+00  0.0000E+00  0.0000E+00  0.0000E+00  0.0000E+00  0.0000E+00  0.0000E+00  0.0000E+00  0.0000E+00  0.0000E+00
     -1.959  0.0000E+00  0.0000E+00  0.0000E+00  0.0000E+00  0.0000E+00  0.0000E+00  0.0000E+00  0.0000E+00  0.0000E+00  0.0000E+00  0.0000E+00  0.0000E+00  0.0000E+00  0.0000E+00  0.0000E+00  0.0000E+00  0.0000E+00  0.0000E+00
     -1.832  0.4454E-02  0.4454E-02  0.4131E-03  0.4131E-03  0.4131E-03  0.4131E-03  0.4131E-03  0.4131E-03  0.0000E+00  0.0000E+00  0.0000E+00  0.0000E+00  0.0000E+00  0.0000E+00  0.0000E+00  0.0000E+00  0.0000E+00  0.0000E+00
     -1.705  0.1154E-01  0.1154E-01  0.1096E-02  0.1096E-02  0.1096E-02  0.1096E-02  0.1096E-02  0.1096E-02  0.0000E+00  0.0000E+00  0.0000E+00  0.0000E+00  0.0000E+00  0.0000E+00  0.0000E+00  0.0000E+00  0.0000E+00  0.0000E+00
     -1.578  0.2073E-01  0.2073E-01  0.2002E-02  0.2002E-02  0.2002E-02  0.2002E-02  0.2002E-02  0.2002E-02  0.0000E+00  0.0000E+00  0.0000E+00  0.0000E+00  0.0000E+00  0.0000E+00  0.0000E+00  0.0000E+00  0.0000E+00  0.0000E+00