    2    2   99    2
  0.2045837E+02  0.3867871E-09  0.3867872E-09  0.3867870E-09  0.5000000E-15
   1.0000000000000000E-004
  CAR 
 unknown system                          
      8     20     16
 
  0.1262379E-14  0.1262379E-14  0.1262379E-14  0.2915452E-02
      1         -6.199117       -6.199118   1.000000   1.000000
      2          5.611395        5.611391   1.000000   1.000000
      3          5.611395        5.611391   1.000000   1.000000
      4          5.611398        5.611394   1.000000   1.000000
      5          8.166998        8.166996   0.000000   0.000000
      6          8.167005        8.167003   0.000000   0.000000
      7          8.167007        8.167005   0.000000   0.000000
      8          8.737713        8.737720   0.000000   0.000000
      9         13.318890       13.318889   0.000000   0.000000
     10         13.318891       13.318890   0.000000   0.000000
     11         13.489555       13.489557   0.000000   0.000000
     12         16.791097       16.791097   0.000000   0.000000
     13         16.791100       16.791100   0.000000   0.000000
     14         16.791101       16.791101   0.000000   0.000000
     15         20.886068       20.886062   0.000000   0.000000
     16         28.459607       28.460368   0.000000   0.000000
 
  0.1428571E+00  0.1252012E-14  0.1262379E-14  0.2332362E-01
      1         -5.937927       -5.937929   1.000000   1.000000
      2          3.691589        3.691587   1.000000   1.000000
      3          5.262101        5.262097   1.000000   1.000000
      4          5.262103        5.262099   1.000000   1.000000
      5          7.987102        7.987103   0.000000   0.000000
      6          8.677954        8.677952   0.000000   0.000000
      7          8.677962        8.677960   0.000000   0.000000
      8         10.455828       10.455831   0.000000   0.000000
      9         12.770608       12.770608   0.000000   0.000000
     10         12.770611       12.770610   0.000000   0.000000
     11         14.434931       14.434932   0.000000   0.000000
     12         16.178902       16.178901   0.000000   0.000000
     13         18.225310       18.225310   0.000000   0.000000
     14         18.225312       18.225312   0.000000   0.000000
     15         22.397865       22.397860   0.000000   0.000000
     16         25.978809       25.978913   0.000000   0.000000
 
  0.2857143E+00  0.1228013E-14  0.1262379E-14  0.2332362E-01
      1         -5.186102       -5.186103   1.000000   1.000000
      2          1.110197        1.110195   1.000000   1.000000
      3          4.754679        4.754675   1.000000   1.000000
      4          4.754681        4.754678   1.000000   1.000000
      5          7.443705        7.443707   0.000000   0.000000
      6          9.135075        9.135073   0.000000   0.000000
      7          9.135083        9.135082   0.000000   0.000000
      8         12.919250       12.919251   0.000000   0.000000
      9         13.049649       13.049648   0.000000   0.000000
     10         13.049652       13.049651   0.000000   0.000000
     11         14.437954       14.437955   0.000000   0.000000
     12         18.071699       18.071711   0.000000   0.000000
     13         20.486912       20.486911   0.000000   0.000000
     14         20.487867       20.487573   0.000000   0.000000
     15         22.781003       22.781002   0.000000   0.000000
     16         22.870885       22.842556   0.000000   0.000000
 
  0.4285714E+00  0.1239646E-14  0.1262379E-14  0.2332362E-01
      1         -4.169595       -4.169596   1.000000   1.000000
      2         -0.882820       -0.882822   1.000000   1.000000
      3          4.469552        4.469548   1.000000   1.000000
      4          4.469554        4.469551   1.000000   1.000000
      5          7.117916        7.117918   0.000000   0.000000
      6          8.998529        8.998528   0.000000   0.000000
      7          8.998538        8.998537   0.000000   0.000000
      8         13.372145       13.372142   0.000000   0.000000
      9         15.032012       15.032011   0.000000   0.000000
     10         15.032016       15.032015   0.000000   0.000000
     11         15.991386       15.991388   0.000000   0.000000
     12         18.050070       18.050073   0.000000   0.000000
     13         18.050077       18.050075   0.000000   0.000000
     14         19.062020       19.062026   0.000000   0.000000
     15         22.991984       22.991965   0.000000   0.000000
     16         25.298172       25.298165   0.000000   0.000000
 
  0.1428571E+00  0.1428571E+00  0.1262379E-14  0.1749271E-01
      1         -5.849522       -5.849524   1.000000   1.000000
      2          3.962299        3.962298   1.000000   1.000000
      3          4.662287        4.662284   1.000000   1.000000
      4          4.662287        4.662283   1.000000   1.000000
      5          7.498872        7.498870   0.000000   0.000000
      6          9.543704        9.543701   0.000000   0.000000
      7          9.543707        9.543705   0.000000   0.000000
      8          9.896335        9.896337   0.000000   0.000000
      9         12.022250       12.022252   0.000000   0.000000
     10         13.708223       13.708222   0.000000   0.000000
     11         14.845922       14.845923   0.000000   0.000000
     12         17.397941       17.397943   0.000000   0.000000
     13         17.397945       17.397942   0.000000   0.000000
     14         17.925068       17.925067   0.000000   0.000000
     15         23.154251       23.154246   0.000000   0.000000
     16         25.492104       25.492082   0.000000   0.000000
 
  0.2857143E+00  0.1428571E+00  0.1262379E-14  0.6997085E-01
      1         -5.253822       -5.253823   1.000000   1.000000
      2          1.879081        1.879080   1.000000   1.000000
      3          4.080318        4.080316   1.000000   1.000000
      4          4.129256        4.129252   1.000000   1.000000
      5          7.686820        7.686819   0.000000   0.000000
      6          9.435017        9.435018   0.000000   0.000000
      7         10.173094       10.173093   0.000000   0.000000
      8         10.321811       10.321809   0.000000   0.000000
      9         13.617739       13.617742   0.000000   0.000000
     10         14.083887       14.083887   0.000000   0.000000
     11         15.751546       15.751546   0.000000   0.000000
     12         17.595439       17.595439   0.000000   0.000000
     13         19.028494       19.028493   0.000000   0.000000
     14         20.442565       20.442563   0.000000   0.000000
     15         22.188288       22.188287   0.000000   0.000000
     16         22.809238       22.809309   0.000000   0.000000
 
  0.4285714E+00  0.1428571E+00  0.1262379E-14  0.6997085E-01
      1         -4.265936       -4.265938   1.000000   1.000000
      2         -0.263959       -0.263960   1.000000   1.000000
      3          3.401935        3.401933   1.000000   1.000000
      4          3.941950        3.941946   1.000000   1.000000
      5          7.743208        7.743207   0.000000   0.000000
      6          9.387290        9.387290   0.000000   0.000000
      7         10.123999       10.123997   0.000000   0.000000
      8         11.356964       11.356962   0.000000   0.000000
      9         15.025022       15.025020   0.000000   0.000000
     10         15.782677       15.782675   0.000000   0.000000
     11         16.372450       16.372452   0.000000   0.000000
     12         17.735747       17.735747   0.000000   0.000000
     13         18.489155       18.489159   0.000000   0.000000
     14         21.150986       21.151005   0.000000   0.000000
     15         22.927273       22.927303   0.000000   0.000000
     16         23.057152       23.057146   0.000000   0.000000
 
 -0.4285714E+00  0.1428571E+00  0.1262379E-14  0.6997085E-01
      1         -3.722424       -3.722425   1.000000   1.000000
      2         -1.107922       -1.107924   1.000000   1.000000
      3          2.996758        2.996755   1.000000   1.000000
      4          4.134373        4.134369   1.000000   1.000000
      5          7.829343        7.829343   0.000000   0.000000
      6          9.311938        9.311937   0.000000   0.000000
      7          9.738379        9.738377   0.000000   0.000000
      8         13.704552       13.704550   0.000000   0.000000
      9         14.229561       14.229559   0.000000   0.000000
     10         14.602709       14.602707   0.000000   0.000000
     11         16.492697       16.492699   0.000000   0.000000
     12         18.641248       18.641248   0.000000   0.000000
     13         19.150746       19.150745   0.000000   0.000000
     14         19.627593       19.627600   0.000000   0.000000
     15         23.575615       23.575695   0.000000   0.000000
     16         25.374973       25.376901   0.000000   0.000000
 
 -0.2857143E+00  0.1428571E+00  0.1262379E-14  0.6997085E-01
      1         -4.626444       -4.626446   1.000000   1.000000
      2          0.402633        0.402631   1.000000   1.000000
      3          3.006181        3.006179   1.000000   1.000000
      4          4.637519        4.637515   1.000000   1.000000
      5          8.211313        8.211314   0.000000   0.000000
      6          9.495101        9.495100   0.000000   0.000000
      7          9.518795        9.518793   0.000000   0.000000
      8         12.177967       12.177966   0.000000   0.000000
      9         12.354950       12.354949   0.000000   0.000000
     10         15.379580       15.379579   0.000000   0.000000
     11         16.646399       16.646400   0.000000   0.000000
     12         17.715411       17.715411   0.000000   0.000000
     13         19.616274       19.616275   0.000000   0.000000
     14         21.401766       21.401768   0.000000   0.000000
     15         21.666518       21.666517   0.000000   0.000000
     16         22.948817       22.948828   0.000000   0.000000
 
 -0.1428571E+00  0.1428571E+00  0.1262379E-14  0.3498542E-01
      1         -5.509707       -5.509709   1.000000   1.000000
      2          2.488550        2.488549   1.000000   1.000000
      3          3.691515        3.691512   1.000000   1.000000
      4          5.218852        5.218849   1.000000   1.000000
      5          8.599383        8.599383   0.000000   0.000000
      6          8.887638        8.887636   0.000000   0.000000
      7          9.135011        9.135009   0.000000   0.000000
      8         11.148776       11.148777   0.000000   0.000000
      9         11.833897       11.833896   0.000000   0.000000
     10         14.041385       14.041386   0.000000   0.000000
     11         15.606409       15.606410   0.000000   0.000000
     12         16.834592       16.834590   0.000000   0.000000
     13         18.276396       18.276395   0.000000   0.000000
     14         20.630253       20.630253   0.000000   0.000000
     15         22.191219       22.191223   0.000000   0.000000
     16         23.978311       23.978380   0.000000   0.000000
 
  0.2857143E+00  0.2857143E+00  0.1262379E-14  0.1749271E-01
      1         -4.817539       -4.817541   1.000000   1.000000
      2          1.459834        1.459833   1.000000   1.000000
      3          3.518798        3.518795   1.000000   1.000000
      4          3.518800        3.518797   1.000000   1.000000
      5          6.568987        6.568986   0.000000   0.000000
      6          8.239918        8.239917   0.000000   0.000000
      7         11.925016       11.925015   0.000000   0.000000
      8         11.925016       11.925015   0.000000   0.000000
      9         14.211117       14.211122   0.000000   0.000000
     10         14.873320       14.873319   0.000000   0.000000
     11         17.644041       17.644043   0.000000   0.000000
     12         18.881527       18.881525   0.000000   0.000000
     13         18.881529       18.881527   0.000000   0.000000
     14         19.784466       19.784463   0.000000   0.000000
     15         22.168000       22.168004   0.000000   0.000000
     16         22.168027       22.168018   0.000000   0.000000
 
  0.4285714E+00  0.2857143E+00  0.1262379E-14  0.6997085E-01
      1         -3.932160       -3.932161   1.000000   1.000000
      2         -0.017422       -0.017423   1.000000   1.000000
      3          2.561796        2.561793   1.000000   1.000000
      4          3.262923        3.262920   1.000000   1.000000
      5          6.852124        6.852123   0.000000   0.000000
      6          8.321359        8.321358   0.000000   0.000000
      7         12.132462       12.132462   0.000000   0.000000
      8         12.326580       12.326579   0.000000   0.000000
      9         16.427058       16.427058   0.000000   0.000000
     10         16.672345       16.672349   0.000000   0.000000
     11         17.136829       17.136829   0.000000   0.000000
     12         17.715953       17.715953   0.000000   0.000000
     13         19.623541       19.623541   0.000000   0.000000
     14         20.509869       20.509867   0.000000   0.000000
     15         21.764714       21.764714   0.000000   0.000000
     16         23.328769       23.329065   0.000000   0.000000
 
 -0.4285714E+00  0.2857143E+00  0.1262379E-14  0.6997085E-01
      1         -3.036962       -3.036963   1.000000   1.000000
      2         -1.168964       -1.168965   1.000000   1.000000
      3          1.628331        1.628328   1.000000   1.000000
      4          3.427743        3.427739   1.000000   1.000000
      5          7.089241        7.089240   0.000000   0.000000
      6         10.533096       10.533094   0.000000   0.000000
      7         11.839452       11.839451   0.000000   0.000000
      8         11.866206       11.866206   0.000000   0.000000
      9         14.543292       14.543292   0.000000   0.000000
     10         14.614068       14.614067   0.000000   0.000000
     11         18.897397       18.897400   0.000000   0.000000
     12         19.237350       19.237350   0.000000   0.000000
     13         19.660009       19.660012   0.000000   0.000000
     14         22.826106       22.826290   0.000000   0.000000
     15         22.995712       22.995459   0.000000   0.000000
     16         23.352256       23.349320   0.000000   0.000000
 
 -0.2857143E+00  0.2857143E+00  0.1262379E-14  0.3498542E-01
      1         -3.672786       -3.672787   1.000000   1.000000
      2         -0.432630       -0.432631   1.000000   1.000000
      3          1.557898        1.557895   1.000000   1.000000
      4          3.965758        3.965755   1.000000   1.000000
      5          7.678972        7.678972   0.000000   0.000000
      6         11.016779       11.016778   0.000000   0.000000
      7         11.354549       11.354547   0.000000   0.000000
      8         12.114627       12.114627   0.000000   0.000000
      9         12.490292       12.490291   0.000000   0.000000
     10         13.665723       13.665722   0.000000   0.000000
     11         18.829993       18.829992   0.000000   0.000000
     12         19.445057       19.445059   0.000000   0.000000
     13         20.276513       20.276517   0.000000   0.000000
     14         22.002228       22.002227   0.000000   0.000000
     15         22.196498       22.196500   0.000000   0.000000
     16         23.223751       23.224279   0.000000   0.000000
 
  0.4285714E+00  0.4285714E+00  0.1262379E-14  0.1749271E-01
      1         -3.160998       -3.160999   1.000000   1.000000
      2         -1.000732       -1.000733   1.000000   1.000000
      3          2.897809        2.897805   1.000000   1.000000
      4          2.897811        2.897808   1.000000   1.000000
      5          6.224507        6.224506   0.000000   0.000000
      6          6.741502        6.741501   0.000000   0.000000
      7         14.535989       14.535989   0.000000   0.000000
      8         14.535996       14.535995   0.000000   0.000000
      9         16.804207       16.804207   0.000000   0.000000
     10         17.155767       17.155772   0.000000   0.000000
     11         17.543487       17.543485   0.000000   0.000000
     12         17.543495       17.543492   0.000000   0.000000
     13         19.176958       19.176961   0.000000   0.000000
     14         19.478389       19.478389   0.000000   0.000000
     15         22.658833       22.658835   0.000000   0.000000
     16         23.418930       23.418929   0.000000   0.000000
 
 -0.4285714E+00  0.4285714E+00  0.1262379E-14  0.3498542E-01
      1         -2.231655       -2.231657   1.000000   1.000000
      2         -1.942565       -1.942566   1.000000   1.000000
      3          2.029216        2.029213   1.000000   1.000000
      4          2.957996        2.957993   1.000000   1.000000
      5          6.524896        6.524895   0.000000   0.000000
      6          7.760905        7.760903   0.000000   0.000000
      7         14.315790       14.315790   0.000000   0.000000
      8         14.723193       14.723195   0.000000   0.000000
      9         14.966686       14.966685   0.000000   0.000000
     10         15.287739       15.287736   0.000000   0.000000
     11         19.192351       19.192355   0.000000   0.000000
     12         19.240440       19.240438   0.000000   0.000000
     13         19.389526       19.389528   0.000000   0.000000
     14         20.231625       20.231629   0.000000   0.000000
     15         22.568490       22.568486   0.000000   0.000000
     16         22.999110       22.999130   0.000000   0.000000
 
  0.4285714E+00  0.2857143E+00  0.1428571E+00  0.6997085E-01
      1         -4.515403       -4.515404   1.000000   1.000000
      2          0.742300        0.742299   1.000000   1.000000
      3          2.565706        2.565703   1.000000   1.000000
      4          3.860994        3.860991   1.000000   1.000000
      5          8.189546        8.189545   0.000000   0.000000
      6          9.424643        9.424643   0.000000   0.000000
      7          9.717993        9.717992   0.000000   0.000000
      8         11.685411       11.685410   0.000000   0.000000
      9         13.781571       13.781571   0.000000   0.000000
     10         16.465542       16.465541   0.000000   0.000000
     11         16.850956       16.850958   0.000000   0.000000
     12         18.068475       18.068473   0.000000   0.000000
     13         19.230505       19.230506   0.000000   0.000000
     14         20.962921       20.962921   0.000000   0.000000
     15         21.111633       21.111649   0.000000   0.000000
     16         23.976677       23.968824   0.000000   0.000000
 
 -0.4285714E+00  0.2857143E+00  0.1428571E+00  0.1399417E+00
      1         -3.496138       -3.496139   1.000000   1.000000
      2         -0.758198       -0.758199   1.000000   1.000000
      3          1.998204        1.998202   1.000000   1.000000
      4          3.338300        3.338297   1.000000   1.000000
      5          8.670892        8.670891   0.000000   0.000000
      6          9.074766        9.074765   0.000000   0.000000
      7         11.034476       11.034475   0.000000   0.000000
      8         12.136862       12.136861   0.000000   0.000000
      9         13.858175       13.858174   0.000000   0.000000
     10         15.496994       15.496994   0.000000   0.000000
     11         17.705645       17.705645   0.000000   0.000000
     12         18.890267       18.890269   0.000000   0.000000
     13         20.021659       20.021663   0.000000   0.000000
     14         21.476090       21.476099   0.000000   0.000000
     15         22.887331       22.887246   0.000000   0.000000
     16         23.670851       23.671699   0.000000   0.000000
 
 -0.4285714E+00  0.4285714E+00  0.1428571E+00  0.6997085E-01
      1         -2.962194       -2.962196   1.000000   1.000000
      2         -1.087612       -1.087613   1.000000   1.000000
      3          2.093310        2.093306   1.000000   1.000000
      4          2.497887        2.497883   1.000000   1.000000
      5          7.829902        7.829901   0.000000   0.000000
      6          8.200428        8.200427   0.000000   0.000000
      7         11.695751       11.695750   0.000000   0.000000
      8         14.164882       14.164882   0.000000   0.000000
      9         14.666720       14.666718   0.000000   0.000000
     10         16.535166       16.535167   0.000000   0.000000
     11         17.931567       17.931568   0.000000   0.000000
     12         19.497478       19.497481   0.000000   0.000000
     13         20.008669       20.008670   0.000000   0.000000
     14         20.958291       20.958290   0.000000   0.000000
     15         22.233962       22.233959   0.000000   0.000000
     16         22.953423       22.953183   0.000000   0.000000
 
 -0.2857143E+00  0.4285714E+00  0.1428571E+00  0.6997085E-01
      1         -2.537594       -2.537596   1.000000   1.000000
      2         -1.476057       -1.476058   1.000000   1.000000
      3          1.471511        1.471508   1.000000   1.000000
      4          2.587162        2.587159   1.000000   1.000000
      5          8.350962        8.350960   0.000000   0.000000
      6         10.441220       10.441217   0.000000   0.000000
      7         11.183994       11.183995   0.000000   0.000000
      8         11.341626       11.341626   0.000000   0.000000
      9         14.577614       14.577613   0.000000   0.000000
     10         15.740999       15.740999   0.000000   0.000000
     11         18.642044       18.642045   0.000000   0.000000
     12         19.923378       19.923380   0.000000   0.000000
     13         20.774538       20.774538   0.000000   0.000000
     14         21.891120       21.891119   0.000000   0.000000
     15         23.013776       23.013665   0.000000   0.000000
     16         23.850068       23.853608   0.000000   0.000000
