Automatically generated mesh
      20
Reciprocal lattice
    0.00000000000000    0.00000000000000    0.00000000000000             1
    0.14285714285715    0.00000000000000    0.00000000000000             8
    0.28571428571429    0.00000000000000    0.00000000000000             8
    0.42857142857143    0.00000000000000    0.00000000000000             8
    0.14285714285715    0.14285714285715    0.00000000000000             6
    0.28571428571429    0.14285714285715    0.00000000000000            24
    0.42857142857143    0.14285714285715    0.00000000000000            24
   -0.42857142857143    0.14285714285715    0.00000000000000            24
   -0.28571428571428    0.14285714285715    0.00000000000000            24
   -0.14285714285714    0.14285714285715    0.00000000000000            12
    0.28571428571429    0.28571428571429    0.00000000000000             6
    0.42857142857143    0.28571428571429    0.00000000000000            24
   -0.42857142857143    0.28571428571429    0.00000000000000            24
   -0.28571428571428    0.28571428571429    0.00000000000000            12
    0.42857142857143    0.42857142857143    0.00000000000000             6
   -0.42857142857143    0.42857142857143    0.00000000000000            12
    0.42857142857143    0.28571428571429    0.14285714285715            24
   -0.42857142857143    0.28571428571429    0.14285714285715            48
   -0.42857142857143    0.42857142857143    0.14285714285715            24
   -0.28571428571428    0.42857142857143    0.14285714285715            24
Tetrahedra
        58    0.00048590864917
        48         2         3         6        10
        48         6         9        10        17
        24         9         9        10        17
        48         3         6         9        10
        48         9        14        17        18
        48         8         9        14        18
        24         9         9        14        17
        48         8        13        18        18
        48         7         8        13        18
        48         8        13        14        18
        48         7        12        17        18
        48         6         7        12        17
        48         7        12        13        18
        24         6         6        11        17
        24         5         6         6        11
        48         6        11        12        17
        24         5         6         6        10
        48         2         5         6        10
        48         6         7         9        17
        48         3         6         7         9
        48        12        17        18        19
        24        17        18        18        19
        24        14        17        18        18
        48         7         9        17        18
        48        18        19        20        20
        24        18        18        20        20
        48        13        18        18        20
        24        18        18        19        20
        24        14        18        18        20
        48        13        14        18        20
        48        13        18        19        20
        48        12        13        18        19
        24        12        12        17        19
        24        11        12        12        17
        24         6         6        10        17
        48        12        13        16        19
        24        16        19        19        20
        12        19        19        20        20
        24        19        20        20        20
        48        13        16        19        20
         6        20        20        20        20
        48         7         8         8        18
        48         7         8         9        18
        24        13        13        16        20
        24         8         8        18        18
        24         2         2         5        10
        48         3         4         7         9
        48         4         7         8         9
        24        13        13        14        20
        24        12        12        15        19
        24        11        12        12        15
        48        12        15        16        19
        48         4         7         8         8
        12        16        16        19        19
        24        15        16        16        19
        24         4         4         8         8
        12        15        15        16        16
        24         1         2         2         5
