       N       E                     dE             d eps       ncg     rms          rms(c)
DAV:   1    -0.133097315926E+01   -0.13310E+01   -0.33109E+03  1280   0.403E+02
DAV:   2    -0.109517951747E+02   -0.96208E+01   -0.96036E+01  1888   0.372E+01
DAV:   3    -0.110107039148E+02   -0.58909E-01   -0.58909E-01  1440   0.368E+00
DAV:   4    -0.110108565494E+02   -0.15263E-03   -0.15263E-03  2384   0.201E-01
DAV:   5    -0.110108565559E+02   -0.65514E-08   -0.65514E-08  1456   0.122E-03    0.475E+00
RMM:   6    -0.108940848399E+02    0.11677E+00   -0.25517E-02  1280   0.560E-01    0.290E+00
RMM:   7    -0.108399729817E+02    0.54112E-01   -0.60522E-02  1280   0.939E-01    0.180E-01
RMM:   8    -0.108412694186E+02   -0.12964E-02   -0.29961E-03  1280   0.265E-01    0.740E-02
RMM:   9    -0.108414229340E+02   -0.15352E-03   -0.36837E-04  1278   0.946E-02    0.734E-02
RMM:  10    -0.108414565603E+02   -0.33626E-04   -0.74815E-05  1020   0.452E-02
   1 F= -.10841457E+02 E0= -.10841457E+02  d E =-.108415E+02  mag=    -0.0000
