PROCAR lm decomposed
# of k-points:   20         # of bands:   16         # of ions:    2

 k-point     1 :    0.00000000 0.00000000 0.00000000     weight = 0.00291545

band     1 # energy   -6.19911680 # occ.  1.00000000
 
ion      s     py     pz     px    dxy    dyz    dz2    dxz  x2-y2    tot
    1  0.212  0.000  0.000  0.000  0.000  0.000  0.000  0.000  0.000  0.212
    2  0.212  0.000  0.000  0.000  0.000  0.000  0.000  0.000  0.000  0.212
tot    0.424  0.000  0.000  0.000  0.000  0.000  0.000  0.000  0.000  0.424
 
band     2 # energy    5.61139456 # occ.  0.99999998
 
ion      s     py     pz     px    dxy    dyz    dz2    dxz  x2-y2    tot
    1  0.000  0.011  0.151  0.052  0.000  0.000  0.000  0.000  0.000  0.214
    2  0.000  0.011  0.151  0.052  0.000  0.000  0.000  0.000  0.000  0.214
tot    0.000  0.022  0.302  0.104  0.000  0.000  0.000  0.000  0.000  0.427
 
band     3 # energy    5.61139479 # occ.  0.99999976
 
ion      s     py     pz     px    dxy    dyz    dz2    dxz  x2-y2    tot
    1  0.000  0.004  0.060  0.149  0.000  0.000  0.000  0.000  0.000  0.214
    2  0.000  0.004  0.060  0.149  0.000  0.000  0.000  0.000  0.000  0.214
tot    0.000  0.009  0.120  0.299  0.000  0.000  0.000  0.000  0.000  0.427
 
band     4 # energy    5.61139756 # occ.  0.99999976
 
ion      s     py     pz     px    dxy    dyz    dz2    dxz  x2-y2    tot
    1  0.000  0.198  0.003  0.012  0.000  0.000  0.000  0.000  0.000  0.214
    2  0.000  0.198  0.003  0.012  0.000  0.000  0.000  0.000  0.000  0.214
tot    0.000  0.397  0.006  0.025  0.000  0.000  0.000  0.000  0.000  0.427
 
band     5 # energy    8.16699838 # occ.  0.00000000
 
ion      s     py     pz     px    dxy    dyz    dz2    dxz  x2-y2    tot
    1  0.000  0.149  0.000  0.001  0.000  0.000  0.000  0.000  0.000  0.151
    2  0.000  0.149  0.000  0.001  0.000  0.000  0.000  0.000  0.000  0.151
tot    0.000  0.299  0.000  0.003  0.000  0.000  0.000  0.000  0.000  0.301
 
band     6 # energy    8.16700547 # occ.  0.00000000
 
ion      s     py     pz     px    dxy    dyz    dz2    dxz  x2-y2    tot
    1  0.000  0.001  0.000  0.149  0.000  0.000  0.000  0.000  0.000  0.151
    2  0.000  0.001  0.000  0.149  0.000  0.000  0.000  0.000  0.000  0.151
tot    0.000  0.003  0.000  0.298  0.000  0.000  0.000  0.000  0.000  0.301
 
band     7 # energy    8.16700675 # occ.  0.00000000
 
ion      s     py     pz     px    dxy    dyz    dz2    dxz  x2-y2    tot
    1  0.000  0.000  0.151  0.000  0.000  0.000  0.000  0.000  0.000  0.151
    2  0.000  0.000  0.151  0.000  0.000  0.000  0.000  0.000  0.000  0.151
tot    0.000  0.000  0.301  0.000  0.000  0.000  0.000  0.000  0.000  0.301
 
band     8 # energy    8.73771349 # occ.  0.00000000
 
ion      s     py     pz     px    dxy    dyz    dz2    dxz  x2-y2    tot
    1  0.359  0.000  0.000  0.000  0.000  0.000  0.000  0.000  0.000  0.359
    2  0.359  0.000  0.000  0.000  0.000  0.000  0.000  0.000  0.000  0.359
tot    0.717  0.000  0.000  0.000  0.000  0.000  0.000  0.000  0.000  0.717
 
band     9 # energy   13.31888955 # occ.  0.00000000
 
ion      s     py     pz     px    dxy    dyz    dz2    dxz  x2-y2    tot
    1  0.000  0.000  0.000  0.000  0.000  0.000  0.000  0.000  0.000  0.000
    2  0.000  0.000  0.000  0.000  0.000  0.000  0.000  0.000  0.000  0.000
tot    0.000  0.000  0.000  0.000  0.000  0.000  0.000  0.000  0.000  0.000
 
band    10 # energy   13.31889083 # occ.  0.00000000
 
ion      s     py     pz     px    dxy    dyz    dz2    dxz  x2-y2    tot
    1  0.000  0.000  0.000  0.000  0.000  0.000  0.000  0.000  0.000  0.000
    2  0.000  0.000  0.000  0.000  0.000  0.000  0.000  0.000  0.000  0.000
tot    0.000  0.000  0.000  0.000  0.000  0.000  0.000  0.000  0.000  0.000
 
band    11 # energy   13.48955515 # occ.  0.00000000
 
ion      s     py     pz     px    dxy    dyz    dz2    dxz  x2-y2    tot
    1  0.100  0.000  0.000  0.000  0.000  0.000  0.000  0.000  0.000  0.100
    2  0.100  0.000  0.000  0.000  0.000  0.000  0.000  0.000  0.000  0.100
tot    0.201  0.000  0.000  0.000  0.000  0.000  0.000  0.000  0.000  0.201
 
band    12 # energy   16.79109698 # occ.  0.00000000
 
ion      s     py     pz     px    dxy    dyz    dz2    dxz  x2-y2    tot
    1  0.000  0.036  0.000  0.003  0.000  0.000  0.000  0.000  0.000  0.039
    2  0.000  0.036  0.000  0.003  0.000  0.000  0.000  0.000  0.000  0.039
tot    0.000  0.072  0.000  0.006  0.000  0.000  0.000  0.000  0.000  0.078
 
band    13 # energy   16.79109975 # occ.  0.00000000
 
ion      s     py     pz     px    dxy    dyz    dz2    dxz  x2-y2    tot
    1  0.000  0.003  0.001  0.036  0.000  0.000  0.000  0.000  0.000  0.039
    2  0.000  0.003  0.001  0.036  0.000  0.000  0.000  0.000  0.000  0.039
tot    0.000  0.006  0.001  0.071  0.000  0.000  0.000  0.000  0.000  0.078
 
band    14 # energy   16.79110138 # occ.  0.00000000
 
ion      s     py     pz     px    dxy    dyz    dz2    dxz  x2-y2    tot
    1  0.000  0.000  0.039  0.001  0.000  0.000  0.000  0.000  0.000  0.039
    2  0.000  0.000  0.039  0.001  0.000  0.000  0.000  0.000  0.000  0.039
tot    0.000  0.000  0.077  0.001  0.000  0.000  0.000  0.000  0.000  0.078
 
band    15 # energy   20.88606796 # occ.  0.00000000
 
ion      s     py     pz     px    dxy    dyz    dz2    dxz  x2-y2    tot
    1  0.037  0.000  0.000  0.000  0.000  0.000  0.000  0.000  0.000  0.037
    2  0.037  0.000  0.000  0.000  0.000  0.000  0.000  0.000  0.000  0.037
tot    0.075  0.000  0.000  0.000  0.000  0.000  0.000  0.000  0.000  0.075
 
band    16 # energy   28.45960686 # occ.  0.00000000
 
ion      s     py     pz     px    dxy    dyz    dz2    dxz  x2-y2    tot
    1  0.000  0.003  0.005  0.002  0.000  0.000  0.000  0.000  0.000  0.010
    2  0.000  0.003  0.005  0.002  0.000  0.000  0.000  0.000  0.000  0.010
tot    0.000  0.006  0.011  0.004  0.000  0.000  0.000  0.000  0.000  0.020
 

 k-point     2 :    0.14285714 0.00000000 0.00000000     weight = 0.02332362

band     1 # energy   -5.93792736 # occ.  1.00000000
 
ion      s     py     pz     px    dxy    dyz    dz2    dxz  x2-y2    tot
    1  0.211  0.000  0.000  0.002  0.000  0.000  0.000  0.000  0.000  0.213
    2  0.211  0.000  0.000  0.002  0.000  0.000  0.000  0.000  0.000  0.213
tot    0.421  0.001  0.000  0.005  0.000  0.000  0.000  0.000  0.000  0.427
 
band     2 # energy    3.69158862 # occ.  1.00000000
 
ion      s     py     pz     px    dxy    dyz    dz2    dxz  x2-y2    tot
    1  0.071  0.016  0.000  0.132  0.000  0.000  0.000  0.000  0.000  0.219
    2  0.071  0.016  0.000  0.132  0.000  0.000  0.000  0.000  0.000  0.219
tot    0.142  0.033  0.000  0.263  0.000  0.000  0.000  0.000  0.000  0.438
 
band     3 # energy    5.26210051 # occ.  0.99999999
 
ion      s     py     pz     px    dxy    dyz    dz2    dxz  x2-y2    tot
    1  0.000  0.000  0.210  0.000  0.000  0.000  0.000  0.000  0.000  0.211
    2  0.000  0.000  0.210  0.000  0.000  0.000  0.000  0.000  0.000  0.211
tot    0.000  0.001  0.421  0.000  0.000  0.000  0.000  0.000  0.000  0.421
 
band     4 # energy    5.26210270 # occ.  0.99999999
 
ion      s     py     pz     px    dxy    dyz    dz2    dxz  x2-y2    tot
    1  0.000  0.187  0.000  0.023  0.000  0.000  0.000  0.000  0.000  0.211
    2  0.000  0.187  0.000  0.023  0.000  0.000  0.000  0.000  0.000  0.211
tot    0.000  0.374  0.001  0.047  0.000  0.000  0.000  0.000  0.000  0.421
 
band     5 # energy    7.98710197 # occ.  0.00000000
 
ion      s     py     pz     px    dxy    dyz    dz2    dxz  x2-y2    tot
    1  0.120  0.009  0.000  0.072  0.000  0.000  0.000  0.000  0.000  0.201
    2  0.120  0.009  0.000  0.072  0.000  0.000  0.000  0.000  0.000  0.201
tot    0.239  0.018  0.000  0.144  0.000  0.000  0.000  0.000  0.000  0.401
 
band     6 # energy    8.67795449 # occ.  0.00000000
 
ion      s     py     pz     px    dxy    dyz    dz2    dxz  x2-y2    tot
    1  0.000  0.137  0.000  0.017  0.000  0.000  0.000  0.000  0.000  0.154
    2  0.000  0.137  0.000  0.017  0.000  0.000  0.000  0.000  0.000  0.154
tot    0.000  0.274  0.000  0.034  0.000  0.000  0.000  0.000  0.000  0.308
 
band     7 # energy    8.67796182 # occ.  0.00000000
 
ion      s     py     pz     px    dxy    dyz    dz2    dxz  x2-y2    tot
    1  0.000  0.000  0.154  0.000  0.000  0.000  0.000  0.000  0.000  0.154
    2  0.000  0.000  0.154  0.000  0.000  0.000  0.000  0.000  0.000  0.154
tot    0.000  0.000  0.308  0.000  0.000  0.000  0.000  0.000  0.000  0.308
 
band     8 # energy   10.45582831 # occ.  0.00000000
 
ion      s     py     pz     px    dxy    dyz    dz2    dxz  x2-y2    tot
    1  0.181  0.012  0.000  0.097  0.000  0.000  0.000  0.000  0.000  0.290
    2  0.181  0.012  0.000  0.097  0.000  0.000  0.000  0.000  0.000  0.290
tot    0.362  0.024  0.000  0.193  0.000  0.000  0.000  0.000  0.000  0.580
 
band     9 # energy   12.77060831 # occ.  0.00000000
 
ion      s     py     pz     px    dxy    dyz    dz2    dxz  x2-y2    tot
    1  0.000  0.002  0.000  0.000  0.000  0.000  0.000  0.000  0.000  0.002
    2  0.000  0.002  0.000  0.000  0.000  0.000  0.000  0.000  0.000  0.002
tot    0.000  0.004  0.000  0.001  0.000  0.000  0.000  0.000  0.000  0.005
 
band    10 # energy   12.77061057 # occ.  0.00000000
 
ion      s     py     pz     px    dxy    dyz    dz2    dxz  x2-y2    tot
    1  0.000  0.000  0.002  0.000  0.000  0.000  0.000  0.000  0.000  0.002
    2  0.000  0.000  0.002  0.000  0.000  0.000  0.000  0.000  0.000  0.002
tot    0.000  0.000  0.005  0.000  0.000  0.000  0.000  0.000  0.000  0.005
 
band    11 # energy   14.43493069 # occ.  0.00000000
 
ion      s     py     pz     px    dxy    dyz    dz2    dxz  x2-y2    tot
    1  0.071  0.004  0.000  0.034  0.000  0.000  0.000  0.000  0.000  0.109
    2  0.071  0.004  0.000  0.034  0.000  0.000  0.000  0.000  0.000  0.109
tot    0.141  0.009  0.000  0.068  0.000  0.000  0.000  0.000  0.000  0.218
 
band    12 # energy   16.17890171 # occ.  0.00000000
 
ion      s     py     pz     px    dxy    dyz    dz2    dxz  x2-y2    tot
    1  0.020  0.002  0.000  0.018  0.000  0.000  0.000  0.000  0.000  0.040
    2  0.020  0.002  0.000  0.018  0.000  0.000  0.000  0.000  0.000  0.040
tot    0.040  0.004  0.000  0.036  0.000  0.000  0.000  0.000  0.000  0.080
 
band    13 # energy   18.22530951 # occ.  0.00000000
 
ion      s     py     pz     px    dxy    dyz    dz2    dxz  x2-y2    tot
    1  0.000  0.003  0.032  0.000  0.000  0.000  0.000  0.000  0.000  0.035
    2  0.000  0.003  0.032  0.000  0.000  0.000  0.000  0.000  0.000  0.035
tot    0.000  0.005  0.063  0.001  0.000  0.000  0.000  0.000  0.000  0.069
 
band    14 # energy   18.22531249 # occ.  0.00000000
 
ion      s     py     pz     px    dxy    dyz    dz2    dxz  x2-y2    tot
    1  0.000  0.028  0.003  0.004  0.000  0.000  0.000  0.000  0.000  0.035
    2  0.000  0.028  0.003  0.004  0.000  0.000  0.000  0.000  0.000  0.035
tot    0.000  0.056  0.006  0.007  0.000  0.000  0.000  0.000  0.000  0.069
 
band    15 # energy   22.39786498 # occ.  0.00000000
 
ion      s     py     pz     px    dxy    dyz    dz2    dxz  x2-y2    tot
    1  0.022  0.002  0.000  0.017  0.000  0.000  0.000  0.000  0.000  0.041
    2  0.022  0.002  0.000  0.017  0.000  0.000  0.000  0.000  0.000  0.041
tot    0.044  0.004  0.000  0.034  0.000  0.000  0.000  0.000  0.000  0.083
 
band    16 # energy   25.97880854 # occ.  0.00000000
 
ion      s     py     pz     px    dxy    dyz    dz2    dxz  x2-y2    tot
    1  0.000  0.002  0.042  0.000  0.000  0.000  0.000  0.000  0.000  0.045
    2  0.000  0.002  0.042  0.000  0.000  0.000  0.000  0.000  0.000  0.045
tot    0.000  0.005  0.085  0.000  0.000  0.000  0.000  0.000  0.000  0.090
 

 k-point     3 :    0.28571429 0.00000000 0.00000000     weight = 0.02332362

band     1 # energy   -5.18610189 # occ.  1.00000000
 
ion      s     py     pz     px    dxy    dyz    dz2    dxz  x2-y2    tot
    1  0.209  0.001  0.000  0.009  0.000  0.000  0.000  0.000  0.000  0.219
    2  0.209  0.001  0.000  0.009  0.000  0.000  0.000  0.000  0.000  0.219
tot    0.418  0.002  0.000  0.017  0.000  0.000  0.000  0.000  0.000  0.438
 
band     2 # energy    1.11019716 # occ.  1.00000000
 
ion      s     py     pz     px    dxy    dyz    dz2    dxz  x2-y2    tot
    1  0.102  0.012  0.000  0.097  0.000  0.000  0.000  0.000  0.000  0.212
    2  0.102  0.012  0.000  0.097  0.000  0.000  0.000  0.000  0.000  0.212
tot    0.204  0.024  0.000  0.195  0.000  0.000  0.000  0.000  0.000  0.423
 
band     3 # energy    4.75467860 # occ.  1.00000000
 
ion      s     py     pz     px    dxy    dyz    dz2    dxz  x2-y2    tot
    1  0.000  0.001  0.211  0.000  0.000  0.000  0.000  0.000  0.000  0.212
    2  0.000  0.001  0.211  0.000  0.000  0.000  0.000  0.000  0.000  0.212
tot    0.000  0.002  0.422  0.000  0.000  0.000  0.000  0.000  0.000  0.424
 
band     4 # energy    4.75468096 # occ.  1.00000000
 
ion      s     py     pz     px    dxy    dyz    dz2    dxz  x2-y2    tot
    1  0.000  0.188  0.001  0.023  0.000  0.000  0.000  0.000  0.000  0.212
    2  0.000  0.188  0.001  0.023  0.000  0.000  0.000  0.000  0.000  0.212
tot    0.000  0.375  0.002  0.047  0.000  0.000  0.000  0.000  0.000  0.424
 
band     5 # energy    7.44370513 # occ.  0.00000000
 
ion      s     py     pz     px    dxy    dyz    dz2    dxz  x2-y2    tot
    1  0.164  0.005  0.000  0.036  0.000  0.000  0.000  0.000  0.000  0.205
    2  0.164  0.005  0.000  0.036  0.000  0.000  0.000  0.000  0.000  0.205
tot    0.328  0.009  0.000  0.073  0.000  0.000  0.000  0.000  0.000  0.410
 
band     6 # energy    9.13507507 # occ.  0.00000000
 
ion      s     py     pz     px    dxy    dyz    dz2    dxz  x2-y2    tot
    1  0.000  0.114  0.000  0.014  0.000  0.000  0.000  0.000  0.000  0.129
    2  0.000  0.114  0.000  0.014  0.000  0.000  0.000  0.000  0.000  0.129
tot    0.000  0.228  0.000  0.029  0.000  0.000  0.000  0.000  0.000  0.257
 
band     7 # energy    9.13508334 # occ.  0.00000000
 
ion      s     py     pz     px    dxy    dyz    dz2    dxz  x2-y2    tot
    1  0.000  0.000  0.128  0.000  0.000  0.000  0.000  0.000  0.000  0.129
    2  0.000  0.000  0.128  0.000  0.000  0.000  0.000  0.000  0.000  0.129
tot    0.000  0.000  0.257  0.000  0.000  0.000  0.000  0.000  0.000  0.257
 
band     8 # energy   12.91925033 # occ.  0.00000000
 
ion      s     py     pz     px    dxy    dyz    dz2    dxz  x2-y2    tot
    1  0.078  0.018  0.000  0.143  0.000  0.000  0.000  0.000  0.000  0.239
    2  0.078  0.018  0.000  0.143  0.000  0.000  0.000  0.000  0.000  0.239
tot    0.157  0.036  0.000  0.285  0.000  0.000  0.000  0.000  0.000  0.478
 
band     9 # energy   13.04964917 # occ.  0.00000000
 
ion      s     py     pz     px    dxy    dyz    dz2    dxz  x2-y2    tot
    1  0.000  0.021  0.001  0.003  0.000  0.000  0.000  0.000  0.000  0.024
    2  0.000  0.021  0.001  0.003  0.000  0.000  0.000  0.000  0.000  0.024
tot    0.000  0.042  0.002  0.005  0.000  0.000  0.000  0.000  0.000  0.049
 
band    10 # energy   13.04965207 # occ.  0.00000000
 
ion      s     py     pz     px    dxy    dyz    dz2    dxz  x2-y2    tot
    1  0.000  0.001  0.024  0.000  0.000  0.000  0.000  0.000  0.000  0.024
    2  0.000  0.001  0.024  0.000  0.000  0.000  0.000  0.000  0.000  0.024
tot    0.000  0.001  0.047  0.000  0.000  0.000  0.000  0.000  0.000  0.049
 
band    11 # energy   14.43795384 # occ.  0.00000000
 
ion      s     py     pz     px    dxy    dyz    dz2    dxz  x2-y2    tot
    1  0.064  0.002  0.000  0.013  0.000  0.000  0.000  0.000  0.000  0.079
    2  0.064  0.002  0.000  0.013  0.000  0.000  0.000  0.000  0.000  0.079
tot    0.127  0.003  0.000  0.026  0.000  0.000  0.000  0.000  0.000  0.157
 
band    12 # energy   18.07169872 # occ.  0.00000000
 
ion      s     py     pz     px    dxy    dyz    dz2    dxz  x2-y2    tot
    1  0.030  0.011  0.000  0.090  0.000  0.000  0.000  0.000  0.000  0.131
    2  0.030  0.011  0.000  0.090  0.000  0.000  0.000  0.000  0.000  0.131
tot    0.059  0.023  0.000  0.180  0.000  0.000  0.000  0.000  0.000  0.262
 
band    13 # energy   20.48691240 # occ.  0.00000000
 
ion      s     py     pz     px    dxy    dyz    dz2    dxz  x2-y2    tot
    1  0.000  0.004  0.038  0.000  0.000  0.000  0.000  0.000  0.000  0.043
    2  0.000  0.004  0.038  0.000  0.000  0.000  0.000  0.000  0.000  0.043
tot    0.000  0.007  0.077  0.001  0.000  0.000  0.000  0.000  0.000  0.085
 
band    14 # energy   20.48786655 # occ.  0.00000000
 
ion      s     py     pz     px    dxy    dyz    dz2    dxz  x2-y2    tot
    1  0.000  0.035  0.004  0.004  0.000  0.000  0.000  0.000  0.000  0.043
    2  0.000  0.035  0.004  0.004  0.000  0.000  0.000  0.000  0.000  0.043
tot    0.000  0.069  0.009  0.009  0.000  0.000  0.000  0.000  0.000  0.087
 
band    15 # energy   22.78100299 # occ.  0.00000000
 
ion      s     py     pz     px    dxy    dyz    dz2    dxz  x2-y2    tot
    1  0.000  0.003  0.040  0.000  0.000  0.000  0.000  0.000  0.000  0.044
    2  0.000  0.003  0.040  0.000  0.000  0.000  0.000  0.000  0.000  0.044
tot    0.000  0.006  0.080  0.001  0.000  0.000  0.000  0.000  0.000  0.087
 
band    16 # energy   22.87088458 # occ.  0.00000000
 
ion      s     py     pz     px    dxy    dyz    dz2    dxz  x2-y2    tot
    1  0.036  0.009  0.000  0.089  0.000  0.000  0.000  0.000  0.000  0.135
    2  0.036  0.011  0.000  0.087  0.000  0.000  0.000  0.000  0.000  0.135
tot    0.072  0.020  0.000  0.177  0.000  0.000  0.000  0.000  0.000  0.269
 

 k-point     4 :    0.42857143 0.00000000 0.00000000     weight = 0.02332362

band     1 # energy   -4.16959466 # occ.  1.00000000
 
ion      s     py     pz     px    dxy    dyz    dz2    dxz  x2-y2    tot
    1  0.217  0.002  0.000  0.013  0.000  0.000  0.000  0.000  0.000  0.231
    2  0.217  0.002  0.000  0.013  0.000  0.000  0.000  0.000  0.000  0.231
tot    0.434  0.003  0.000  0.025  0.000  0.000  0.000  0.000  0.000  0.463
 
band     2 # energy   -0.88282004 # occ.  1.00000000
 
ion      s     py     pz     px    dxy    dyz    dz2    dxz  x2-y2    tot
    1  0.105  0.010  0.000  0.082  0.000  0.000  0.000  0.000  0.000  0.197
    2  0.105  0.010  0.000  0.082  0.000  0.000  0.000  0.000  0.000  0.197
tot    0.210  0.021  0.000  0.164  0.000  0.000  0.000  0.000  0.000  0.395
 
band     3 # energy    4.46955154 # occ.  1.00000000
 
ion      s     py     pz     px    dxy    dyz    dz2    dxz  x2-y2    tot
    1  0.000  0.001  0.214  0.000  0.000  0.000  0.000  0.000  0.000  0.215
    2  0.000  0.001  0.214  0.000  0.000  0.000  0.000  0.000  0.000  0.215
tot    0.000  0.001  0.428  0.000  0.000  0.000  0.000  0.000  0.000  0.430
 
band     4 # energy    4.46955447 # occ.  1.00000000
 
ion      s     py     pz     px    dxy    dyz    dz2    dxz  x2-y2    tot
    1  0.000  0.190  0.001  0.024  0.000  0.000  0.000  0.000  0.000  0.215
    2  0.000  0.190  0.001  0.024  0.000  0.000  0.000  0.000  0.000  0.215
tot    0.000  0.381  0.001  0.048  0.000  0.000  0.000  0.000  0.000  0.430
 
band     5 # energy    7.11791618 # occ.  0.00000000
 
ion      s     py     pz     px    dxy    dyz    dz2    dxz  x2-y2    tot
    1  0.182  0.003  0.000  0.020  0.000  0.000  0.000  0.000  0.000  0.206
    2  0.182  0.003  0.000  0.020  0.000  0.000  0.000  0.000  0.000  0.206
tot    0.365  0.005  0.000  0.041  0.000  0.000  0.000  0.000  0.000  0.411
 
band     6 # energy    8.99852931 # occ.  0.00000000
 
ion      s     py     pz     px    dxy    dyz    dz2    dxz  x2-y2    tot
    1  0.000  0.088  0.000  0.011  0.000  0.000  0.000  0.000  0.000  0.099
    2  0.000  0.088  0.000  0.011  0.000  0.000  0.000  0.000  0.000  0.099
tot    0.000  0.175  0.000  0.022  0.000  0.000  0.000  0.000  0.000  0.197
 
band     7 # energy    8.99853798 # occ.  0.00000000
 
ion      s     py     pz     px    dxy    dyz    dz2    dxz  x2-y2    tot
    1  0.000  0.000  0.099  0.000  0.000  0.000  0.000  0.000  0.000  0.099
    2  0.000  0.000  0.099  0.000  0.000  0.000  0.000  0.000  0.000  0.099
tot    0.000  0.000  0.197  0.000  0.000  0.000  0.000  0.000  0.000  0.197
 
band     8 # energy   13.37214500 # occ.  0.00000000
 
ion      s     py     pz     px    dxy    dyz    dz2    dxz  x2-y2    tot
    1  0.004  0.007  0.000  0.055  0.000  0.000  0.000  0.000  0.000  0.067
    2  0.004  0.007  0.000  0.055  0.000  0.000  0.000  0.000  0.000  0.067
tot    0.008  0.014  0.000  0.111  0.000  0.000  0.000  0.000  0.000  0.133
 
band     9 # energy   15.03201189 # occ.  0.00000000
 
ion      s     py     pz     px    dxy    dyz    dz2    dxz  x2-y2    tot
    1  0.000  0.036  0.000  0.005  0.000  0.000  0.000  0.000  0.000  0.041
    2  0.000  0.036  0.000  0.005  0.000  0.000  0.000  0.000  0.000  0.041
tot    0.000  0.072  0.000  0.009  0.000  0.000  0.000  0.000  0.000  0.081
 
band    10 # energy   15.03201638 # occ.  0.00000000
 
ion      s     py     pz     px    dxy    dyz    dz2    dxz  x2-y2    tot
    1  0.000  0.000  0.041  0.000  0.000  0.000  0.000  0.000  0.000  0.041
    2  0.000  0.000  0.041  0.000  0.000  0.000  0.000  0.000  0.000  0.041
tot    0.000  0.000  0.081  0.000  0.000  0.000  0.000  0.000  0.000  0.081
 
band    11 # energy   15.99138606 # occ.  0.00000000
 
ion      s     py     pz     px    dxy    dyz    dz2    dxz  x2-y2    tot
    1  0.075  0.015  0.000  0.121  0.000  0.000  0.000  0.000  0.000  0.211
    2  0.075  0.015  0.000  0.121  0.000  0.000  0.000  0.000  0.000  0.211
tot    0.150  0.030  0.000  0.241  0.000  0.000  0.000  0.000  0.000  0.421
 
band    12 # energy   18.05006967 # occ.  0.00000000
 
ion      s     py     pz     px    dxy    dyz    dz2    dxz  x2-y2    tot
    1  0.000  0.057  0.007  0.007  0.000  0.000  0.000  0.000  0.000  0.071
    2  0.000  0.057  0.007  0.007  0.000  0.000  0.000  0.000  0.000  0.071
tot    0.000  0.114  0.014  0.014  0.000  0.000  0.000  0.000  0.000  0.142
 
band    13 # energy   18.05007656 # occ.  0.00000000
 
ion      s     py     pz     px    dxy    dyz    dz2    dxz  x2-y2    tot
    1  0.000  0.006  0.064  0.001  0.000  0.000  0.000  0.000  0.000  0.071
    2  0.000  0.006  0.064  0.001  0.000  0.000  0.000  0.000  0.000  0.071
tot    0.000  0.012  0.128  0.002  0.000  0.000  0.000  0.000  0.000  0.142
 
band    14 # energy   19.06201986 # occ.  0.00000000
 
ion      s     py     pz     px    dxy    dyz    dz2    dxz  x2-y2    tot
    1  0.046  0.025  0.000  0.198  0.000  0.000  0.000  0.000  0.000  0.269
    2  0.046  0.025  0.000  0.198  0.000  0.000  0.000  0.000  0.000  0.269
tot    0.092  0.050  0.000  0.396  0.000  0.000  0.000  0.000  0.000  0.538
 
band    15 # energy   22.99198372 # occ.  0.00000000
 
ion      s     py     pz     px    dxy    dyz    dz2    dxz  x2-y2    tot
    1  0.052  0.001  0.000  0.009  0.000  0.000  0.000  0.000  0.000  0.062
    2  0.052  0.001  0.000  0.009  0.000  0.000  0.000  0.000  0.000  0.062
tot    0.105  0.002  0.000  0.018  0.000  0.000  0.000  0.000  0.000  0.125
 
band    16 # energy   25.29817177 # occ.  0.00000000
 
ion      s     py     pz     px    dxy    dyz    dz2    dxz  x2-y2    tot
    1  0.000  0.015  0.007  0.002  0.000  0.000  0.000  0.000  0.000  0.024
    2  0.000  0.015  0.007  0.002  0.000  0.000  0.000  0.000  0.000  0.024
tot    0.000  0.031  0.015  0.004  0.000  0.000  0.000  0.000  0.000  0.049
 

 k-point     5 :    0.14285714 0.14285714 0.00000000     weight = 0.01749271

band     1 # energy   -5.84952227 # occ.  1.00000000
 
ion      s     py     pz     px    dxy    dyz    dz2    dxz  x2-y2    tot
    1  0.210  0.001  0.000  0.003  0.000  0.000  0.000  0.000  0.000  0.214
    2  0.210  0.001  0.000  0.003  0.000  0.000  0.000  0.000  0.000  0.214
tot    0.420  0.003  0.000  0.005  0.000  0.000  0.000  0.000  0.000  0.428
 
band     2 # energy    3.96229916 # occ.  1.00000000
 
ion      s     py     pz     px    dxy    dyz    dz2    dxz  x2-y2    tot
    1  0.112  0.045  0.000  0.090  0.000  0.000  0.000  0.000  0.000  0.246
    2  0.112  0.045  0.000  0.090  0.000  0.000  0.000  0.000  0.000  0.246
tot    0.223  0.090  0.000  0.179  0.000  0.000  0.000  0.000  0.000  0.492
 
band     3 # energy    4.66228665 # occ.  1.00000005
 
ion      s     py     pz     px    dxy    dyz    dz2    dxz  x2-y2    tot
    1  0.000  0.117  0.025  0.058  0.000  0.000  0.000  0.000  0.000  0.200
    2  0.000  0.117  0.025  0.058  0.000  0.000  0.000  0.000  0.000  0.200
tot    0.000  0.233  0.051  0.117  0.000  0.000  0.000  0.000  0.000  0.401
 
band     4 # energy    4.66228709 # occ.  1.00000005
 
ion      s     py     pz     px    dxy    dyz    dz2    dxz  x2-y2    tot
    1  0.000  0.017  0.175  0.008  0.000  0.000  0.000  0.000  0.000  0.200
    2  0.000  0.017  0.175  0.008  0.000  0.000  0.000  0.000  0.000  0.200
tot    0.000  0.034  0.350  0.017  0.000  0.000  0.000  0.000  0.000  0.401
 
band     5 # energy    7.49887186 # occ.  0.00000000
 
ion      s     py     pz     px    dxy    dyz    dz2    dxz  x2-y2    tot
    1  0.024  0.037  0.000  0.074  0.000  0.000  0.000  0.000  0.000  0.135
    2  0.024  0.037  0.000  0.074  0.000  0.000  0.000  0.000  0.000  0.135
tot    0.048  0.074  0.000  0.149  0.000  0.000  0.000  0.000  0.000  0.270
 
band     6 # energy    9.54370354 # occ.  0.00000000
 
ion      s     py     pz     px    dxy    dyz    dz2    dxz  x2-y2    tot
    1  0.000  0.109  0.000  0.055  0.000  0.000  0.000  0.000  0.000  0.164
    2  0.000  0.109  0.000  0.055  0.000  0.000  0.000  0.000  0.000  0.164
tot    0.000  0.219  0.000  0.109  0.000  0.000  0.000  0.000  0.000  0.328
 
band     7 # energy    9.54370673 # occ.  0.00000000
 
ion      s     py     pz     px    dxy    dyz    dz2    dxz  x2-y2    tot
    1  0.000  0.000  0.164  0.000  0.000  0.000  0.000  0.000  0.000  0.164
    2  0.000  0.000  0.164  0.000  0.000  0.000  0.000  0.000  0.000  0.164
tot    0.000  0.000  0.328  0.000  0.000  0.000  0.000  0.000  0.000  0.328
 
band     8 # energy    9.89633476 # occ.  0.00000000
 
ion      s     py     pz     px    dxy    dyz    dz2    dxz  x2-y2    tot
    1  0.183  0.026  0.000  0.053  0.000  0.000  0.000  0.000  0.000  0.262
    2  0.183  0.026  0.000  0.053  0.000  0.000  0.000  0.000  0.000  0.262
tot    0.366  0.053  0.000  0.105  0.000  0.000  0.000  0.000  0.000  0.525
 
band     9 # energy   12.02225047 # occ.  0.00000000
 
ion      s     py     pz     px    dxy    dyz    dz2    dxz  x2-y2    tot
    1  0.062  0.003  0.000  0.007  0.000  0.000  0.000  0.000  0.000  0.073
    2  0.062  0.003  0.000  0.007  0.000  0.000  0.000  0.000  0.000  0.073
tot    0.125  0.007  0.000  0.014  0.000  0.000  0.000  0.000  0.000  0.146
 
band    10 # energy   13.70822286 # occ.  0.00000000
 
ion      s     py     pz     px    dxy    dyz    dz2    dxz  x2-y2    tot
    1  0.000  0.000  0.000  0.000  0.000  0.000  0.000  0.000  0.000  0.000
    2  0.000  0.000  0.000  0.000  0.000  0.000  0.000  0.000  0.000  0.000
tot    0.000  0.000  0.000  0.000  0.000  0.000  0.000  0.000  0.000  0.000
 
band    11 # energy   14.84592164 # occ.  0.00000000
 
ion      s     py     pz     px    dxy    dyz    dz2    dxz  x2-y2    tot
    1  0.069  0.016  0.000  0.031  0.000  0.000  0.000  0.000  0.000  0.116
    2  0.069  0.016  0.000  0.031  0.000  0.000  0.000  0.000  0.000  0.116
tot    0.138  0.031  0.000  0.062  0.000  0.000  0.000  0.000  0.000  0.232
 
band    12 # energy   17.39794057 # occ.  0.00000000
 
ion      s     py     pz     px    dxy    dyz    dz2    dxz  x2-y2    tot
    1  0.000  0.019  0.006  0.010  0.000  0.000  0.000  0.000  0.000  0.035
    2  0.000  0.019  0.006  0.010  0.000  0.000  0.000  0.000  0.000  0.035
tot    0.000  0.039  0.012  0.019  0.000  0.000  0.000  0.000  0.000  0.070
 
band    13 # energy   17.39794463 # occ.  0.00000000
 
ion      s     py     pz     px    dxy    dyz    dz2    dxz  x2-y2    tot
    1  0.000  0.004  0.029  0.002  0.000  0.000  0.000  0.000  0.000  0.035
    2  0.000  0.004  0.029  0.002  0.000  0.000  0.000  0.000  0.000  0.035
tot    0.000  0.008  0.058  0.004  0.000  0.000  0.000  0.000  0.000  0.070
 
band    14 # energy   17.92506846 # occ.  0.00000000
 
ion      s     py     pz     px    dxy    dyz    dz2    dxz  x2-y2    tot
    1  0.014  0.004  0.000  0.008  0.000  0.000  0.000  0.000  0.000  0.026
    2  0.014  0.004  0.000  0.008  0.000  0.000  0.000  0.000  0.000  0.026
tot    0.028  0.008  0.000  0.016  0.000  0.000  0.000  0.000  0.000  0.053
 
band    15 # energy   23.15425086 # occ.  0.00000000
 
ion      s     py     pz     px    dxy    dyz    dz2    dxz  x2-y2    tot
    1  0.017  0.008  0.000  0.016  0.000  0.000  0.000  0.000  0.000  0.041
    2  0.017  0.008  0.000  0.016  0.000  0.000  0.000  0.000  0.000  0.041
tot    0.033  0.016  0.000  0.032  0.000  0.000  0.000  0.000  0.000  0.081
 
band    16 # energy   25.49210378 # occ.  0.00000000
 
ion      s     py     pz     px    dxy    dyz    dz2    dxz  x2-y2    tot
    1  0.000  0.037  0.021  0.019  0.000  0.000  0.000  0.000  0.000  0.077
    2  0.000  0.037  0.021  0.019  0.000  0.000  0.000  0.000  0.000  0.077
tot    0.000  0.075  0.042  0.037  0.000  0.000  0.000  0.000  0.000  0.154
 

 k-point     6 :    0.28571429 0.14285714 0.00000000     weight = 0.06997085

band     1 # energy   -5.25382193 # occ.  1.00000000
 
ion      s     py     pz     px    dxy    dyz    dz2    dxz  x2-y2    tot
    1  0.208  0.000  0.000  0.009  0.000  0.000  0.000  0.000  0.000  0.218
    2  0.208  0.000  0.000  0.009  0.000  0.000  0.000  0.000  0.000  0.218
tot    0.416  0.001  0.000  0.019  0.000  0.000  0.000  0.000  0.000  0.436
 
band     2 # energy    1.87908140 # occ.  1.00000000
 
ion      s     py     pz     px    dxy    dyz    dz2    dxz  x2-y2    tot
    1  0.119  0.010  0.000  0.101  0.000  0.000  0.000  0.000  0.000  0.230
    2  0.119  0.010  0.000  0.101  0.000  0.000  0.000  0.000  0.000  0.230
tot    0.238  0.020  0.000  0.202  0.000  0.000  0.000  0.000  0.000  0.460