 ----------------------------------------------------
    OOO  PPPP  EEEEE N   N M   M PPPP
   O   O P   P E     NN  N MM MM P   P
   O   O PPPP  EEEEE N N N M M M PPPP   -- VERSION
   O   O P     E     N  NN M   M P
    OOO  P     EEEEE N   N M   M P
 ----------------------------------------------------
 running   16 mpi-ranks, with    4 threads/rank
 distrk:  each k-point on   16 cores,    1 groups
 distr:  one band on    1 cores,   16 groups
 vasp.6.3.2 27Jun22 (build Jun 30 2023 15:13:53) complex                         
 POSCAR found type information on POSCAR Si
 POSCAR found :  1 types and       2 ions
 Reading from existing POTCAR
 scaLAPACK will be used
 Reading from existing POTCAR
 -----------------------------------------------------------------------------
|                                                                             |
|               ----> ADVICE to this user running VASP <----                  |
|                                                                             |
|     You have a (more or less) 'small supercell' and for smaller cells       |
|     it is recommended to use the reciprocal-space projection scheme!        |
|     The real-space optimization is not efficient for small cells and it     |
|     is also less accurate ...                                               |
|     Therefore, set LREAL=.FALSE. in the INCAR file.                         |
|                                                                             |
 -----------------------------------------------------------------------------

 LDA part: xc-table for Pade appr. of Perdew
 POSCAR, INCAR and KPOINTS ok, starting setup
 FFT: planning ... GRIDC
 FFT: planning ... GRID_SOFT
 FFT: planning ... GRID
 WAVECAR not read
 WARNING: random wavefunctions but no delay for mixing, default for NELMDL
 entering main loop
       N       E                     dE             d eps       ncg     rms          rms(c)
DAV:   1    -0.133097315926E+01   -0.13310E+01   -0.33109E+03  1280   0.403E+02
DAV:   2    -0.109517951747E+02   -0.96208E+01   -0.96036E+01  1888   0.372E+01
DAV:   3    -0.110107039148E+02   -0.58909E-01   -0.58909E-01  1440   0.368E+00
DAV:   4    -0.110108565494E+02   -0.15263E-03   -0.15263E-03  2384   0.201E-01
DAV:   5    -0.110108565559E+02   -0.65514E-08   -0.65514E-08  1456   0.122E-03    0.475E+00
RMM:   6    -0.108940848399E+02    0.11677E+00   -0.25517E-02  1280   0.560E-01    0.290E+00
RMM:   7    -0.108399729817E+02    0.54112E-01   -0.60522E-02  1280   0.939E-01    0.180E-01
RMM:   8    -0.108412694186E+02   -0.12964E-02   -0.29961E-03  1280   0.265E-01    0.740E-02
RMM:   9    -0.108414229340E+02   -0.15352E-03   -0.36837E-04  1278   0.946E-02    0.734E-02
RMM:  10    -0.108414565603E+02   -0.33626E-04   -0.74815E-05  1020   0.452E-02
   1 F= -.10841457E+02 E0= -.10841457E+02  d E =-.108415E+02  mag=    -0.0000
 curvature:   0.00 expect dE= 0.000E+00 dE for cont linesearch  0.000E+00
 trial: gam= 0.00000 g(F)=  0.255E-43 g(S)=  0.503E-05 ort = 0.000E+00 (trialstep = 0.100E+01)
 search vector abs. value=  0.503E-05
 reached required accuracy - stopping structural energy minimisation
 PROFILE, used timers:     371
