<?xml version="1.0" encoding="ISO-8859-1"?>
<modeling>
 <generator>
  <i name="program" type="string">vasp </i>
  <i name="version" type="string">6.3.2  </i>
  <i name="subversion" type="string">27Jun22 (build Jun 30 2023 15:13:53) complex                          parallel </i>
  <i name="platform" type="string">LinuxNV_CrayMPICH </i>
  <i name="date" type="string">2023 08 10 </i>
  <i name="time" type="string">10:17:21 </i>
 </generator>
 <incar>
  <i type="string" name="PREC">Accurate</i>
  <i type="string" name="ALGO">Fast</i>
  <i type="int" name="ISPIN">     2</i>
  <i type="int" name="NELM">   100</i>
  <i type="int" name="IBRION">     2</i>
  <i name="EDIFF">      0.00010000</i>
  <i type="int" name="NSW">    99</i>
  <i type="int" name="ISIF">     3</i>
  <i name="ENCUT">    520.00000000</i>
  <v name="MAGMOM">     -0.00000000     -0.00000000</v>
  <i type="string" name="LREAL">Auto</i>
  <i type="int" name="ISMEAR">    -5</i>
  <i name="SIGMA">      0.05000000</i>
  <i type="logical" name="LWAVE"> F  </i>
  <i type="int" name="LORBIT">    11</i>
  <i type="logical" name="LASPH"> T  </i>
 </incar>
 <primitive_cell>
  <structure name="primitive_cell" >
   <crystal>
    <varray name="basis" >
     <v>       3.34967443       0.00000000       1.93393516 </v>
     <v>       1.11655814       3.15810459       1.93393516 </v>
     <v>       0.00000000       0.00000000       3.86787032 </v>
    </varray>
    <i name="volume">     40.91673888 </i>
    <varray name="rec_basis" >
     <v>       0.29853648      -0.10554854       0.00000000 </v>
     <v>       0.00000000       0.31664562       0.00000000 </v>
     <v>      -0.14926824      -0.10554854       0.25854021 </v>
    </varray>
   </crystal>
   <varray name="positions" >
    <v>       0.87500000       0.87500000       0.87500000 </v>
    <v>       0.12500000       0.12500000       0.12500000 </v>
   </varray>
  </structure>
  <varray name="primitive_index" >
   <v type="int" >        1 </v>
   <v type="int" >        2 </v>
  </varray>
 </primitive_cell>
 <kpoints>
  <generation param="Gamma">
   <v type="int" name="divisions">       7        7        7 </v>
   <v name="usershift">      0.00000000       0.00000000       0.00000000 </v>
   <v name="genvec1">      0.14285714       0.00000000       0.00000000 </v>
   <v name="genvec2">      0.00000000       0.14285714       0.00000000 </v>
   <v name="genvec3">      0.00000000       0.00000000       0.14285714 </v>
   <v name="shift">      0.00000000       0.00000000       0.00000000 </v>
  </generation>
  <varray name="kpointlist" >
   <v>       0.00000000       0.00000000       0.00000000 </v>
   <v>       0.14285714       0.00000000       0.00000000 </v>
   <v>       0.28571429       0.00000000       0.00000000 </v>
   <v>       0.42857143       0.00000000       0.00000000 </v>
   <v>       0.14285714       0.14285714       0.00000000 </v>
   <v>       0.28571429       0.14285714       0.00000000 </v>
   <v>       0.42857143       0.14285714       0.00000000 </v>
   <v>      -0.42857143       0.14285714       0.00000000 </v>
   <v>      -0.28571429       0.14285714       0.00000000 </v>
   <v>      -0.14285714       0.14285714       0.00000000 </v>
   <v>       0.28571429       0.28571429       0.00000000 </v>
   <v>       0.42857143       0.28571429       0.00000000 </v>
   <v>      -0.42857143       0.28571429       0.00000000 </v>
   <v>      -0.28571429       0.28571429       0.00000000 </v>
   <v>       0.42857143       0.42857143       0.00000000 </v>
   <v>      -0.42857143       0.42857143       0.00000000 </v>
   <v>       0.42857143       0.28571429       0.14285714 </v>
   <v>      -0.42857143       0.28571429       0.14285714 </v>
   <v>      -0.42857143       0.42857143       0.14285714 </v>
   <v>      -0.28571429       0.42857143       0.14285714 </v>
  </varray>
  <varray name="weights" >
   <v>       0.00291545 </v>
   <v>       0.02332362 </v>
   <v>       0.02332362 </v>
   <v>       0.02332362 </v>
   <v>       0.01749271 </v>
   <v>       0.06997085 </v>
   <v>       0.06997085 </v>
   <v>       0.06997085 </v>
   <v>       0.06997085 </v>
   <v>       0.03498542 </v>
   <v>       0.01749271 </v>
   <v>       0.06997085 </v>
   <v>       0.06997085 </v>
   <v>       0.03498542 </v>
   <v>       0.01749271 </v>
   <v>       0.03498542 </v>
   <v>       0.06997085 </v>
   <v>       0.13994169 </v>
   <v>       0.06997085 </v>
   <v>       0.06997085 </v>
  </varray>
  <varray name="tetrahedronlist"  type="int" >
   <v type="int" >       48        2        3        6       10 </v>
   <v type="int" >       48        6        9       10       17 </v>
   <v type="int" >       24        9        9       10       17 </v>
   <v type="int" >       48        3        6        9       10 </v>
   <v type="int" >       48        9       14       17       18 </v>
   <v type="int" >       48        8        9       14       18 </v>
   <v type="int" >       24        9        9       14       17 </v>
   <v type="int" >       48        8       13       18       18 </v>
   <v type="int" >       48        7        8       13       18 </v>
   <v type="int" >       48        8       13       14       18 </v>
   <v type="int" >       48        7       12       17       18 </v>
   <v type="int" >       48        6        7       12       17 </v>
   <v type="int" >       48        7       12       13       18 </v>
   <v type="int" >       24        6        6       11       17 </v>
   <v type="int" >       24        5        6        6       11 </v>
   <v type="int" >       48        6       11       12       17 </v>
   <v type="int" >       24        5        6        6       10 </v>
   <v type="int" >       48        2        5        6       10 </v>
   <v type="int" >       48        6        7        9       17 </v>
   <v type="int" >       48        3        6        7        9 </v>
   <v type="int" >       48       12       17       18       19 </v>
   <v type="int" >       24       17       18       18       19 </v>
   <v type="int" >       24       14       17       18       18 </v>
   <v type="int" >       48        7        9       17       18 </v>
   <v type="int" >       48       18       19       20       20 </v>
   <v type="int" >       24       18       18       20       20 </v>
   <v type="int" >       48       13       18       18       20 </v>
   <v type="int" >       24       18       18       19       20 </v>
   <v type="int" >       24       14       18       18       20 </v>
   <v type="int" >       48       13       14       18       20 </v>
   <v type="int" >       48       13       18       19       20 </v>
   <v type="int" >       48       12       13       18       19 </v>
   <v type="int" >       24       12       12       17       19 </v>
   <v type="int" >       24       11       12       12       17 </v>
   <v type="int" >       24        6        6       10       17 </v>
   <v type="int" >       48       12       13       16       19 </v>
   <v type="int" >       24       16       19       19       20 </v>
   <v type="int" >       12       19       19       20       20 </v>
   <v type="int" >       24       19       20       20       20 </v>
   <v type="int" >       48       13       16       19       20 </v>
   <v type="int" >        6       20       20       20       20 </v>
   <v type="int" >       48        7        8        8       18 </v>
   <v type="int" >       48        7        8        9       18 </v>
   <v type="int" >       24       13       13       16       20 </v>
   <v type="int" >       24        8        8       18       18 </v>
   <v type="int" >       24        2        2        5       10 </v>
   <v type="int" >       48        3        4        7        9 </v>
   <v type="int" >       48        4        7        8        9 </v>
   <v type="int" >       24       13       13       14       20 </v>
   <v type="int" >       24       12       12       15       19 </v>
   <v type="int" >       24       11       12       12       15 </v>
   <v type="int" >       48       12       15       16       19 </v>
   <v type="int" >       48        4        7        8        8 </v>
   <v type="int" >       12       16       16       19       19 </v>
   <v type="int" >       24       15       16       16       19 </v>
   <v type="int" >       24        4        4        8        8 </v>
   <v type="int" >       12       15       15       16       16 </v>
   <v type="int" >       24        1        2        2        5 </v>
  </varray>
  <i name="volumeweight">      0.00048591 </i>
 </kpoints>
 <parameters>
  <separator name="general" >
   <i type="string" name="SYSTEM">unknown system</i>
   <i type="logical" name="LCOMPAT"> F  </i>
  </separator>
  <separator name="electronic" >
   <i type="string" name="PREC">accura</i>
   <i name="ENMAX">    520.00000000</i>
   <i name="ENAUG">    322.06900000</i>
   <i name="EDIFF">      0.00010000</i>
   <i type="int" name="IALGO">    68</i>
   <i type="int" name="IWAVPR">    11</i>
   <i type="int" name="NBANDS">    16</i>
   <i type="int" name="NBANDSLOW">    -1</i>
   <i type="int" name="NBANDSHIGH">    -1</i>
   <i name="NELECT">      8.00000000</i>
   <i type="int" name="TURBO">     0</i>
   <i type="int" name="IRESTART">     0</i>
   <i type="int" name="NREBOOT">     0</i>
   <i type="int" name="NMIN">     0</i>
   <i name="EREF">      0.00000000</i>
   <separator name="electronic smearing" >
    <i type="int" name="ISMEAR">    -5</i>
    <i name="SIGMA">      0.05000000</i>
    <i name="KSPACING">      0.50000000</i>
    <i type="logical" name="KGAMMA"> T  </i>
    <i type="logical" name="KBLOWUP"> T  </i>
   </separator>
   <separator name="electronic projectors" >
    <i type="logical" name="LREAL"> T  </i>
    <v name="ROPT">     -0.00025000</v>
    <i type="int" name="LMAXPAW">  -100</i>
    <i type="int" name="LMAXMIX">     2</i>
    <i type="logical" name="NLSPLINE"> F  </i>
   </separator>
   <separator name="electronic startup" >
    <i type="int" name="ISTART">     0</i>
    <i type="int" name="ICHARG">     2</i>
    <i type="int" name="INIWAV">     1</i>
   </separator>
   <separator name="electronic spin" >
    <i type="int" name="ISPIN">     2</i>
    <i type="logical" name="LNONCOLLINEAR"> F  </i>
    <v name="MAGMOM">     -0.00000000     -0.00000000</v>
    <i name="NUPDOWN">     -1.00000000</i>
    <i type="logical" name="LSORBIT"> F  </i>
    <v name="SAXIS">      0.00000000      0.00000000      1.00000000</v>
    <i type="logical" name="LSPIRAL"> F  </i>
    <v name="QSPIRAL">      0.00000000      0.00000000      0.00000000</v>
    <i type="logical" name="LZEROZ"> F  </i>
   </separator>
   <separator name="electronic exchange-correlation" >
    <i type="logical" name="LASPH"> T  </i>
    <i type="logical" name="LMETAGGA"> F  </i>
   </separator>
   <separator name="electronic convergence" >
    <i type="int" name="NELM">   100</i>
    <i type="int" name="NELMDL">     0</i>
    <i type="int" name="NELMIN">     2</i>
    <i name="ENINI">    520.00000000</i>
    <separator name="electronic convergence detail" >
     <i type="logical" name="LDIAG"> T  </i>
     <i type="logical" name="LSUBROT"> F  </i>
     <i name="WEIMIN">      0.00100000</i>
     <i name="EBREAK">      0.00000156</i>
     <i name="DEPER">      0.30000000</i>
     <i type="int" name="NRMM">     4</i>
     <i name="TIME">      0.40000000</i>
    </separator>
   </separator>
   <separator name="electronic mixer" >
    <i name="AMIX">      0.40000000</i>
    <i name="BMIX">      1.00000000</i>
    <i name="AMIN">      0.10000000</i>
    <i name="AMIX_MAG">      1.60000000</i>
    <i name="BMIX_MAG">      1.00000000</i>
    <separator name="electronic mixer details" >
     <i type="int" name="IMIX">     4</i>
     <i type="logical" name="MIXFIRST"> F  </i>
     <i type="int" name="MAXMIX">   -45</i>
     <i name="WC">    100.00000000</i>
     <i type="int" name="INIMIX">     1</i>
     <i type="int" name="MIXPRE">     1</i>
     <i type="int" name="MREMOVE">     5</i>
    </separator>
   </separator>
   <separator name="electronic dipolcorrection" >
    <i type="logical" name="LDIPOL"> F  </i>
    <i type="logical" name="LMONO"> F  </i>
    <i type="int" name="IDIPOL">     0</i>
    <i name="EPSILON">      1.00000000</i>
    <v name="DIPOL">   -100.00000000   -100.00000000   -100.00000000</v>
    <i name="EFIELD">      0.00000000</i>
   </separator>
  </separator>
  <separator name="grids" >
   <i type="int" name="NGX">    30</i>
   <i type="int" name="NGY">    30</i>
   <i type="int" name="NGZ">    30</i>
   <i type="int" name="NGXF">    60</i>
   <i type="int" name="NGYF">    60</i>
   <i type="int" name="NGZF">    60</i>
   <i type="logical" name="ADDGRID"> F  </i>
  </separator>
  <separator name="ionic" >
   <i type="int" name="NSW">    99</i>
   <i type="int" name="IBRION">     2</i>
   <i type="int" name="MDALGO">     0</i>
   <i type="int" name="ISIF">     3</i>
   <i name="PSTRESS">      0.00000000</i>
   <i name="EDIFFG">      0.00100000</i>
   <i type="int" name="NFREE">     1</i>
   <i name="POTIM">      0.50000000</i>
   <i name="SMASS">     -3.00000000</i>
   <i name="SCALEE">      1.00000000</i>
  </separator>
  <separator name="ionic md" >
   <i name="TEBEG">      0.00010000</i>
   <i name="TEEND">      0.00010000</i>
   <i type="int" name="NBLOCK">     1</i>
   <i type="int" name="KBLOCK">    99</i>
   <i type="int" name="NPACO">   256</i>
   <i name="APACO">     10.00000000</i>
  </separator>
  <separator name="symmetry" >
   <i type="int" name="ISYM">     2</i>
   <i name="SYMPREC">      0.00001000</i>
  </separator>
  <separator name="dos" >
   <i type="int" name="LORBIT">    11</i>
   <v name="RWIGS">     -1.00000000</v>
   <i type="int" name="NEDOS">   301</i>
   <i name="EMIN">     10.00000000</i>
   <i name="EMAX">    -10.00000000</i>
   <i name="EFERMI">      0.00000000</i>
  </separator>
  <separator name="writing" >
   <i type="int" name="NWRITE">     2</i>
   <i type="logical" name="LWAVE"> F  </i>
   <i type="logical" name="LDOWNSAMPLE"> F  </i>
   <i type="logical" name="LCHARG"> T  </i>
   <i type="logical" name="LPARD"> F  </i>
   <i type="logical" name="LVTOT"> F  </i>
   <i type="logical" name="LVHAR"> F  </i>
   <i type="logical" name="LELF"> F  </i>
   <i type="logical" name="LOPTICS"> F  </i>
   <v name="STM">      0.00000000      0.00000000      0.00000000      0.00000000      0.00000000      0.00000000      0.00000000</v>
  </separator>
  <separator name="performance" >
   <i type="int" name="NPAR">    16</i>
   <i type="int" name="NSIM">     4</i>
   <i type="int" name="NBLK">    -1</i>
   <i type="logical" name="LPLANE"> T  </i>
   <i type="logical" name="LSCALAPACK"> T  </i>
   <i type="logical" name="LSCAAWARE"> F  </i>
   <i type="logical" name="LSCALU"> F  </i>
   <i type="logical" name="LASYNC"> F  </i>
   <i type="logical" name="LORBITALREAL"> F  </i>
  </separator>
  <separator name="miscellaneous" >
   <i type="int" name="IDIOT">     3</i>
   <i type="int" name="PHON_NSTRUCT">    -1</i>
   <i type="logical" name="LMUSIC"> F  </i>
   <v name="POMASS">     28.08500000</v>
   <v name="DARWINR">      0.00000000</v>
   <v name="DARWINV">      1.00000000</v>
   <i type="logical" name="LCORR"> T  </i>
  </separator>
  <i type="logical" name="GGA_COMPAT"> T  </i>
  <i type="logical" name="LBERRY"> F  </i>
  <i type="int" name="ICORELEVEL">     0</i>
  <i type="logical" name="LDAU"> F  </i>
  <i type="int" name="I_CONSTRAINED_M">     0</i>
  <separator name="electronic exchange-correlation" >
   <i type="string" name="GGA">--</i>
   <i type="int" name="VOSKOWN">     0</i>
   <i type="logical" name="LHFCALC"> F  </i>
   <i type="string" name="PRECFOCK"></i>
   <i type="logical" name="LSYMGRAD"> F  </i>
   <i type="logical" name="LHFONE"> F  </i>
   <i type="logical" name="LRHFCALC"> F  </i>
   <i type="logical" name="LTHOMAS"> F  </i>
   <i type="logical" name="LMODELHF"> F  </i>
   <i type="logical" name="LFOCKACE"> F  </i>
   <i name="ENCUT4O">     -1.00000000</i>
   <i type="int" name="EXXOEP">     0</i>
   <i type="int" name="FOURORBIT">     0</i>
   <i name="AEXX">      0.00000000</i>
   <i name="HFALPHA">      0.00000000</i>
   <i name="MCALPHA">      0.00000000</i>
   <i name="ALDAX">      1.00000000</i>
   <i name="AGGAX">      1.00000000</i>
   <i name="ALDAC">      1.00000000</i>
   <i name="AGGAC">      1.00000000</i>
   <i type="int" name="NKREDX">     1</i>
   <i type="int" name="NKREDY">     1</i>
   <i type="int" name="NKREDZ">     1</i>
   <i type="logical" name="SHIFTRED"> F  </i>
   <i type="logical" name="ODDONLY"> F  </i>
   <i type="logical" name="EVENONLY"> F  </i>
   <i type="int" name="LMAXFOCK">     0</i>
   <i type="int" name="NMAXFOCKAE">     0</i>
   <i type="logical" name="LFOCKAEDFT"> F  </i>
   <i name="HFSCREEN">      0.00000000</i>
   <i name="HFSCREENC">      0.00000000</i>
   <i type="int" name="NBANDSGWLOW">     0</i>
  </separator>
  <separator name="vdW DFT" >
   <i type="logical" name="LUSE_VDW"> F  </i>
   <i name="Zab_VDW">     -0.84910000</i>
   <i name="PARAM1">      0.12340000</i>
   <i name="PARAM2">      1.00000000</i>
   <i name="PARAM3">      0.00000000</i>
  </separator>
  <separator name="model GW" >
   <i type="int" name="MODEL_GW">     0</i>
   <i name="MODEL_EPS0">     12.27502166</i>
   <i name="MODEL_ALPHA">      1.00000000</i>
  </separator>
  <separator name="linear response parameters" >
   <i type="logical" name="LEPSILON"> F  </i>
   <i type="logical" name="LRPA"> F  </i>
   <i type="logical" name="LNABLA"> F  </i>
   <i type="logical" name="LVEL"> F  </i>
   <i name="CSHIFT">      0.10000000</i>
   <i name="OMEGAMAX">     -1.00000000</i>
   <i name="DEG_THRESHOLD">      0.00200000</i>
   <i name="RTIME">     -0.10000000</i>
   <i name="WPLASMAI">      0.00000000</i>
   <v name="DFIELD">      0.00000000      0.00000000      0.00000000</v>
   <v name="WPLASMA">      0.00000000      0.00000000      0.00000000      0.00000000      0.00000000      0.00000000      0.00000000      0.00000000      0.00000000</v>
  </separator>
  <separator name="orbital magnetization" >
   <i type="logical" name="NUCIND"> F  </i>
   <v name="MAGPOS">      0.00000000      0.00000000      0.00000000</v>
   <i type="logical" name="LNICSALL"> T  </i>
   <i type="logical" name="ORBITALMAG"> F  </i>
   <i type="logical" name="LMAGBLOCH"> F  </i>
   <i type="logical" name="LCHIMAG"> F  </i>
   <i type="logical" name="LGAUGE"> T  </i>
   <i type="int" name="MAGATOM">     0</i>
   <v name="MAGDIPOL">      0.00000000      0.00000000      0.00000000</v>
   <v name="AVECCONST">      0.00000000      0.00000000      0.00000000</v>
  </separator>
  <separator name="response functions" >
   <i type="logical" name="LFINITE_TEMPERATURE"> F  </i>
   <i type="logical" name="LADDER"> F  </i>
   <i type="logical" name="LRPAFORCE"> F  </i>
   <i type="logical" name="LFXC"> F  </i>
   <i type="logical" name="LHARTREE"> T  </i>
   <i type="int" name="IBSE">     0</i>
   <v type="int" name="KPOINT">    -1     0     0     0</v>
   <i type="logical" name="LTCTC"> F  </i>
   <i type="logical" name="LTCTE"> F  </i>
   <i type="logical" name="LTETE"> F  </i>
   <i type="logical" name="LTRIPLET"> F  </i>
   <i type="logical" name="LFXCEPS"> F  </i>
   <i type="logical" name="LFXHEG"> F  </i>
   <i type="int" name="NATURALO">     2</i>
   <i type="logical" name="LHOLEGF"> F  </i>
   <i type="logical" name="L2ORDER"> F  </i>
   <i type="logical" name="LDMP1"> F  </i>
   <i type="logical" name="LMP2LT"> F  </i>
   <i type="logical" name="LSMP2LT"> F  </i>
   <i type="logical" name="LGWLF"> F  </i>
   <i name="ENCUTGW">     -2.00000000</i>
   <i name="ENCUTGWSOFT">     -2.00000000</i>
   <i name="ENCUTLF">     -1.00000000</i>
   <i type="logical" name="LESF_SPLINES"> F  </i>
   <i type="int" name="LMAXMP2">    -1</i>
   <i name="SCISSOR">      0.00000000</i>
   <i type="int" name="NOMEGA">     0</i>
   <i type="int" name="NOMEGAR">     0</i>
   <i type="int" name="NBANDSGW">    -1</i>
   <i type="int" name="NBANDSO">    -1</i>
   <i type="int" name="NBANDSV">    -1</i>
   <i type="int" name="NELMGW">     1</i>
   <i type="int" name="NELMHF">     1</i>
   <i type="int" name="DIM">     3</i>
   <i type="int" name="IESPILON">     4</i>
   <i type="int" name="ANTIRES">     0</i>
   <i name="OMEGAMAX">    -30.00000000</i>
   <i name="OMEGAMIN">    -30.00000000</i>
   <i name="OMEGATL">   -200.00000000</i>
   <i type="int" name="OMEGAGRID">     0</i>
   <i name="CSHIFT">     -0.10000000</i>
   <i type="logical" name="LSELFENERGY"> F  </i>
   <i type="logical" name="LSPECTRAL"> F  </i>
   <i type="logical" name="LSPECTRALGW"> F  </i>
   <i type="logical" name="LSINGLES"> F  </i>
   <i type="logical" name="LFERMIGW"> F  </i>
   <i type="logical" name="ODDONLYGW"> F  </i>
   <i type="logical" name="EVENONLYGW"> F  </i>
   <i type="int" name="NKREDLFX">     1</i>
   <i type="int" name="NKREDLFY">     1</i>
   <i type="int" name="NKREDLFZ">     1</i>
   <i type="int" name="MAXMEM">  2800</i>
   <i type="int" name="TELESCOPE">     0</i>
   <i type="int" name="NTAUPAR">    -1</i>
   <i type="int" name="NOMEGAPAR">    -1</i>
   <i name="DAMP_NEWTON">      0.80000001</i>
   <i name="LAMBDA">      1.00000000</i>
  </separator>
  <separator name="External order field" >
   <i name="OFIELD_KAPPA">      0.00000000</i>
   <v name="OFIELD_K">      0.00000000      0.00000000      0.00000000</v>
   <i name="OFIELD_Q6_NEAR">      0.00000000</i>
   <i name="OFIELD_Q6_FAR">      0.00000000</i>
   <i name="OFIELD_A">      0.00000000</i>
  </separator>
  <separator name="optional k-points parameters" >
   <i type="int" name="KPOINTS_OPT_MODE">     1</i>
   <i type="logical" name="LKPOINTS_OPT"> F  </i>
  </separator>
 </parameters>
 <atominfo>
  <atoms>       2 </atoms>
  <types>       1 </types>
  <array name="atoms" >
   <dimension dim="1">ion</dimension>
   <field type="string">element</field>
   <field type="int">atomtype</field>
   <set>
    <rc><c>Si</c><c>   1</c></rc>
    <rc><c>Si</c><c>   1</c></rc>
   </set>
  </array>
  <array name="atomtypes" >
   <dimension dim="1">type</dimension>
   <field type="int">atomspertype</field>
   <field type="string">element</field>
   <field>mass</field>
   <field>valence</field>
   <field type="string">pseudopotential</field>
   <set>
    <rc><c>   2</c><c>Si</c><c>     28.08500000</c><c>      4.00000000</c><c>  PAW_PBE Si 05Jan2001                  </c></rc>
   </set>
  </array>
 </atominfo>
 <structure name="initialpos" >
  <crystal>
   <varray name="basis" >
    <v>       3.34967443       0.00000000       1.93393516 </v>
    <v>       1.11655814       3.15810459       1.93393516 </v>
    <v>       0.00000000       0.00000000       3.86787032 </v>
   </varray>
   <i name="volume">     40.91673888 </i>
   <varray name="rec_basis" >
    <v>       0.29853648      -0.10554854       0.00000000 </v>
    <v>       0.00000000       0.31664562       0.00000000 </v>
    <v>      -0.14926824      -0.10554854       0.25854021 </v>
   </varray>
  </crystal>
  <varray name="positions" >
   <v>       0.87500000       0.87500000       0.87500000 </v>
   <v>       0.12500000       0.12500000       0.12500000 </v>
  </varray>
 </structure>
 <calculation>
  <scstep>
   <time name="dav">    0.62    0.15</time>
   <time name="total">    0.86    0.36</time>
   <energy>
    <i name="alphaZ">      3.29089089 </i>
    <i name="ewald">   -226.89229786 </i>
    <i name="hartreedc">    -11.33398093 </i>
    <i name="XCdc">    -18.68787916 </i>
    <i name="pawpsdc">    176.24759923 </i>
    <i name="pawaedc">   -141.06103558 </i>
    <i name="eentropy">      0.00000000 </i>
    <i name="bandstr">     10.97302751 </i>
    <i name="atom">    206.13270273 </i>
    <i name="e_fr_energy">     -1.33097316 </i>
    <i name="e_wo_entrp">     -1.33097316 </i>
    <i name="e_0_energy">     -1.33097316 </i>
   </energy>
  </scstep>
  <scstep>
   <time name="dav">    0.91    0.23</time>
   <time name="total">    0.93    0.24</time>
   <energy>
    <i name="e_fr_energy">    -10.95179517 </i>
    <i name="e_wo_entrp">    -10.95179517 </i>
    <i name="e_0_energy">    -10.95179517 </i>
   </energy>
  </scstep>
  <scstep>
   <time name="dav">    0.67    0.17</time>
   <time name="total">    0.68    0.18</time>
   <energy>
    <i name="e_fr_energy">    -11.01070391 </i>
    <i name="e_wo_entrp">    -11.01070391 </i>
    <i name="e_0_energy">    -11.01070391 </i>
   </energy>
  </scstep>
  <scstep>
   <time name="dav">    1.19    0.30</time>
   <time name="total">    1.20    0.31</time>
   <energy>
    <i name="e_fr_energy">    -11.01085655 </i>
    <i name="e_wo_entrp">    -11.01085655 </i>
    <i name="e_0_energy">    -11.01085655 </i>
   </energy>
  </scstep>
  <scstep>
   <time name="dav">    0.67    0.17</time>
   <time name="total">    0.73    0.19</time>
   <energy>
    <i name="e_fr_energy">    -11.01085656 </i>
    <i name="e_wo_entrp">    -11.01085656 </i>
    <i name="e_0_energy">    -11.01085656 </i>
   </energy>
  </scstep>
  <scstep>
   <time name="diag">    0.20    0.05</time>
   <time name="diis">    0.15    0.04</time>
   <time name="orth">    0.04    0.01</time>
   <time name="total">    0.71    0.35</time>
   <energy>
    <i name="e_fr_energy">    -10.89408484 </i>
    <i name="e_wo_entrp">    -10.89408484 </i>
    <i name="e_0_energy">    -10.89408484 </i>
   </energy>
  </scstep>
  <scstep>
   <time name="diag">    0.20    0.05</time>
   <time name="diis">    0.16    0.04</time>
   <time name="orth">    0.04    0.01</time>
   <time name="total">    0.71    0.36</time>
   <energy>
    <i name="e_fr_energy">    -10.83997298 </i>
    <i name="e_wo_entrp">    -10.83997298 </i>
    <i name="e_0_energy">    -10.83997298 </i>
   </energy>
  </scstep>
  <scstep>
   <time name="diag">    0.20    0.05</time>
   <time name="diis">    0.16    0.04</time>
   <time name="orth">    0.04    0.01</time>
   <time name="total">    0.73    0.37</time>
   <energy>
    <i name="e_fr_energy">    -10.84126942 </i>
    <i name="e_wo_entrp">    -10.84126942 </i>
    <i name="e_0_energy">    -10.84126942 </i>
   </energy>
  </scstep>
  <scstep>
   <time name="diag">    0.20    0.05</time>
   <time name="diis">    0.16    0.04</time>
   <time name="orth">    0.04    0.01</time>
   <time name="total">    0.73    0.37</time>
   <energy>
    <i name="e_fr_energy">    -10.84142293 </i>
    <i name="e_wo_entrp">    -10.84142293 </i>
    <i name="e_0_energy">    -10.84142293 </i>
   </energy>
  </scstep>
  <scstep>
   <time name="diag">    0.19    0.05</time>
   <time name="diis">    0.11    0.04</time>
   <time name="orth">    0.04    0.01</time>
   <time name="total">    0.64    0.35</time>
   <energy>
    <i name="alphaZ">      3.29089089 </i>
    <i name="ewald">   -226.89229786 </i>
    <i name="hartreedc">    -15.19853171 </i>
    <i name="XCdc">    -18.06171678 </i>
    <i name="pawpsdc">    825.42689127 </i>
    <i name="pawaedc">   -790.44521922 </i>
    <i name="eentropy">      0.00000000 </i>
    <i name="bandstr">      4.90582411 </i>
    <i name="atom">    206.13270273 </i>
    <i name="e_fr_energy">    -10.84145656 </i>
    <i name="e_wo_entrp">    -10.84145656 </i>
    <i name="e_0_energy">    -10.84145656 </i>
   </energy>
  </scstep>
  <structure>
   <crystal>
    <varray name="basis" >
     <v>       3.34967443       0.00000000       1.93393516 </v>
     <v>       1.11655814       3.15810459       1.93393516 </v>
     <v>       0.00000000       0.00000000       3.86787032 </v>
    </varray>
    <i name="volume">     40.91673888 </i>
    <varray name="rec_basis" >
     <v>       0.29853648      -0.10554854       0.00000000 </v>
     <v>       0.00000000       0.31664562       0.00000000 </v>
     <v>      -0.14926824      -0.10554854       0.25854021 </v>
    </varray>
   </crystal>
   <varray name="positions" >
    <v>       0.87500000       0.87500000       0.87500000 </v>
    <v>       0.12500000       0.12500000       0.12500000 </v>
   </varray>
  </structure>
  <varray name="forces" >
   <v>       0.00000000       0.00000000      -0.00000000 </v>
   <v>      -0.00000000      -0.00000000       0.00000000 </v>
  </varray>
  <varray name="stress" >
   <v>      -0.32652222       0.00000000      -0.00000000 </v>
   <v>       0.00000000      -0.32652248      -0.00000000 </v>
   <v>      -0.00000000      -0.00000000      -0.32652213 </v>
  </varray>
  <energy>
   <i name="e_fr_energy">    -10.84145656 </i>
   <i name="e_wo_entrp">    -10.84145656 </i>
   <i name="e_0_energy">    -10.84145656 </i>
  </energy>
  <time name="totalsc">    9.17    3.99</time>
  <eigenvalues>
   <array>
    <dimension dim="1">band</dimension>
    <dimension dim="2">kpoint</dimension>
    <dimension dim="3">spin</dimension>
    <field>eigene</field>
    <field>occ</field>
    <set>
     <set comment="spin 1">
      <set comment="kpoint 1">
       <r>   -6.1991    1.0000 </r>
       <r>    5.6114    1.0000 </r>
       <r>    5.6114    1.0000 </r>
       <r>    5.6114    1.0000 </r>
       <r>    8.1670    0.0000 </r>
       <r>    8.1670    0.0000 </r>
       <r>    8.1670    0.0000 </r>
       <r>    8.7377    0.0000 </r>
       <r>   13.3189    0.0000 </r>
       <r>   13.3189    0.0000 </r>
       <r>   13.4896    0.0000 </r>
       <r>   16.7911    0.0000 </r>
       <r>   16.7911    0.0000 </r>
       <r>   16.7911    0.0000 </r>
       <r>   20.8861    0.0000 </r>
       <r>   28.4596    0.0000 </r>
      </set>
      <set comment="kpoint 2">
       <r>   -5.9379    1.0000 </r>
       <r>    3.6916    1.0000 </r>
       <r>    5.2621    1.0000 </r>
       <r>    5.2621    1.0000 </r>
       <r>    7.9871    0.0000 </r>
       <r>    8.6780    0.0000 </r>
       <r>    8.6780    0.0000 </r>
       <r>   10.4558    0.0000 </r>
       <r>   12.7706    0.0000 </r>
       <r>   12.7706    0.0000 </r>
       <r>   14.4349    0.0000 </r>
       <r>   16.1789    0.0000 </r>
       <r>   18.2253    0.0000 </r>
       <r>   18.2253    0.0000 </r>
       <r>   22.3979    0.0000 </r>
       <r>   25.9788    0.0000 </r>
      </set>
      <set comment="kpoint 3">
       <r>   -5.1861    1.0000 </r>
       <r>    1.1102    1.0000 </r>
       <r>    4.7547    1.0000 </r>
       <r>    4.7547    1.0000 </r>
       <r>    7.4437    0.0000 </r>
       <r>    9.1351    0.0000 </r>
       <r>    9.1351    0.0000 </r>
       <r>   12.9193    0.0000 </r>
       <r>   13.0496    0.0000 </r>
       <r>   13.0497    0.0000 </r>
       <r>   14.4380    0.0000 </r>
       <r>   18.0717    0.0000 </r>
       <r>   20.4869    0.0000 </r>
       <r>   20.4879    0.0000 </r>
       <r>   22.7810    0.0000 </r>
       <r>   22.8709    0.0000 </r>
      </set>
      <set comment="kpoint 4">
       <r>   -4.1696    1.0000 </r>
       <r>   -0.8828    1.0000 </r>
       <r>    4.4696    1.0000 </r>
       <r>    4.4696    1.0000 </r>
       <r>    7.1179    0.0000 </r>
       <r>    8.9985    0.0000 </r>
       <r>    8.9985    0.0000 </r>
       <r>   13.3721    0.0000 </r>
       <r>   15.0320    0.0000 </r>
       <r>   15.0320    0.0000 </r>
       <r>   15.9914    0.0000 </r>
       <r>   18.0501    0.0000 </r>
       <r>   18.0501    0.0000 </r>
       <r>   19.0620    0.0000 </r>
       <r>   22.9920    0.0000 </r>
       <r>   25.2982    0.0000 </r>
      </set>
      <set comment="kpoint 5">
       <r>   -5.8495    1.0000 </r>
       <r>    3.9623    1.0000 </r>
       <r>    4.6623    1.0000 </r>
       <r>    4.6623    1.0000 </r>
       <r>    7.4989    0.0000 </r>
       <r>    9.5437    0.0000 </r>
       <r>    9.5437    0.0000 </r>
       <r>    9.8963    0.0000 </r>
       <r>   12.0223    0.0000 </r>
       <r>   13.7082    0.0000 </r>
       <r>   14.8459    0.0000 </r>
       <r>   17.3979    0.0000 </r>
       <r>   17.3979    0.0000 </r>
       <r>   17.9251    0.0000 </r>
       <r>   23.1543    0.0000 </r>
       <r>   25.4921    0.0000 </r>
      </set>
      <set comment="kpoint 6">
       <r>   -5.2538    1.0000 </r>
       <r>    1.8791    1.0000 </r>
       <r>    4.0803    1.0000 </r>
       <r>    4.1293    1.0000 </r>
       <r>    7.6868    0.0000 </r>
       <r>    9.4350    0.0000 </r>
       <r>   10.1731    0.0000 </r>
       <r>   10.3218    0.0000 </r>
       <r>   13.6177    0.0000 </r>
       <r>   14.0839    0.0000 </r>
       <r>   15.7515    0.0000 </r>
       <r>   17.5954    0.0000 </r>
       <r>   19.0285    0.0000 </r>
       <r>   20.4426    0.0000 </r>
       <r>   22.1883    0.0000 </r>
       <r>   22.8092    0.0000 </r>
      </set>
      <set comment="kpoint 7">
       <r>   -4.2659    1.0000 </r>
       <r>   -0.2640    1.0000 </r>
       <r>    3.4019    1.0000 </r>
       <r>    3.9419    1.0000 </r>
       <r>    7.7432    0.0000 </r>
       <r>    9.3873    0.0000 </r>
       <r>   10.1240    0.0000 </r>
       <r>   11.3570    0.0000 </r>
       <r>   15.0250    0.0000 </r>
       <r>   15.7827    0.0000 </r>
       <r>   16.3724    0.0000 </r>
       <r>   17.7357    0.0000 </r>
       <r>   18.4892    0.0000 </r>
       <r>   21.1510    0.0000 </r>
       <r>   22.9273    0.0000 </r>
       <r>   23.0572    0.0000 </r>
      </set>
      <set comment="kpoint 8">
       <r>   -3.7224    1.0000 </r>
       <r>   -1.1079    1.0000 </r>
       <r>    2.9968    1.0000 </r>
       <r>    4.1344    1.0000 </r>
       <r>    7.8293    0.0000 </r>
       <r>    9.3119    0.0000 </r>
       <r>    9.7384    0.0000 </r>
       <r>   13.7046    0.0000 </r>
       <r>   14.2296    0.0000 </r>
       <r>   14.6027    0.0000 </r>
       <r>   16.4927    0.0000 </r>
       <r>   18.6412    0.0000 </r>
       <r>   19.1507    0.0000 </r>
       <r>   19.6276    0.0000 </r>
       <r>   23.5756    0.0000 </r>
       <r>   25.3750    0.0000 </r>
      </set>
      <set comment="kpoint 9">
       <r>   -4.6264    1.0000 </r>
       <r>    0.4026    1.0000 </r>
       <r>    3.0062    1.0000 </r>
       <r>    4.6375    1.0000 </r>
       <r>    8.2113    0.0000 </r>
       <r>    9.4951    0.0000 </r>
       <r>    9.5188    0.0000 </r>
       <r>   12.1780    0.0000 </r>
       <r>   12.3550    0.0000 </r>
       <r>   15.3796    0.0000 </r>
       <r>   16.6464    0.0000 </r>
       <r>   17.7154    0.0000 </r>
       <r>   19.6163    0.0000 </r>
       <r>   21.4018    0.0000 </r>
       <r>   21.6665    0.0000 </r>
       <r>   22.9488    0.0000 </r>
      </set>
      <set comment="kpoint 10">
       <r>   -5.5097    1.0000 </r>
       <r>    2.4886    1.0000 </r>
       <r>    3.6915    1.0000 </r>
       <r>    5.2189    1.0000 </r>
       <r>    8.5994    0.0000 </r>
       <r>    8.8876    0.0000 </r>
       <r>    9.1350    0.0000 </r>
       <r>   11.1488    0.0000 </r>
       <r>   11.8339    0.0000 </r>
       <r>   14.0414    0.0000 </r>
       <r>   15.6064    0.0000 </r>
       <r>   16.8346    0.0000 </r>
       <r>   18.2764    0.0000 </r>
       <r>   20.6303    0.0000 </r>
       <r>   22.1912    0.0000 </r>
       <r>   23.9783    0.0000 </r>
      </set>
      <set comment="kpoint 11">
       <r>   -4.8175    1.0000 </r>
       <r>    1.4598    1.0000 </r>
       <r>    3.5188    1.0000 </r>
       <r>    3.5188    1.0000 </r>
       <r>    6.5690    0.0000 </r>
       <r>    8.2399    0.0000 </r>
       <r>   11.9250    0.0000 </r>
       <r>   11.9250    0.0000 </r>
       <r>   14.2111    0.0000 </r>
       <r>   14.8733    0.0000 </r>
       <r>   17.6440    0.0000 </r>
       <r>   18.8815    0.0000 </r>
       <r>   18.8815    0.0000 </r>
       <r>   19.7845    0.0000 </r>
       <r>   22.1680    0.0000 </r>
       <r>   22.1680    0.0000 </r>
      </set>
      <set comment="kpoint 12">
       <r>   -3.9322    1.0000 </r>
       <r>   -0.0174    1.0000 </r>
       <r>    2.5618    1.0000 </r>
       <r>    3.2629    1.0000 </r>
       <r>    6.8521    0.0000 </r>
       <r>    8.3214    0.0000 </r>
       <r>   12.1325    0.0000 </r>
       <r>   12.3266    0.0000 </r>
       <r>   16.4271    0.0000 </r>
       <r>   16.6723    0.0000 </r>
       <r>   17.1368    0.0000 </r>
       <r>   17.7160    0.0000 </r>
       <r>   19.6235    0.0000 </r>
       <r>   20.5099    0.0000 </r>
       <r>   21.7647    0.0000 </r>
       <r>   23.3288    0.0000 </r>
      </set>
      <set comment="kpoint 13">
       <r>   -3.0370    1.0000 </r>
       <r>   -1.1690    1.0000 </r>
       <r>    1.6283    1.0000 </r>
       <r>    3.4277    1.0000 </r>
       <r>    7.0892    0.0000 </r>
       <r>   10.5331    0.0000 </r>
       <r>   11.8395    0.0000 </r>
       <r>   11.8662    0.0000 </r>
       <r>   14.5433    0.0000 </r>
       <r>   14.6141    0.0000 </r>
       <r>   18.8974    0.0000 </r>
       <r>   19.2374    0.0000 </r>
       <r>   19.6600    0.0000 </r>
       <r>   22.8261    0.0000 </r>
       <r>   22.9957    0.0000 </r>
       <r>   23.3523    0.0000 </r>
      </set>
      <set comment="kpoint 14">
       <r>   -3.6728    1.0000 </r>
       <r>   -0.4326    1.0000 </r>
       <r>    1.5579    1.0000 </r>
       <r>    3.9658    1.0000 </r>
       <r>    7.6790    0.0000 </r>
       <r>   11.0168    0.0000 </r>
       <r>   11.3545    0.0000 </r>
       <r>   12.1146    0.0000 </r>
       <r>   12.4903    0.0000 </r>
       <r>   13.6657    0.0000 </r>
       <r>   18.8300    0.0000 </r>
       <r>   19.4451    0.0000 </r>
       <r>   20.2765    0.0000 </r>
       <r>   22.0022    0.0000 </r>
       <r>   22.1965    0.0000 </r>
       <r>   23.2238    0.0000 </r>
      </set>
      <set comment="kpoint 15">
       <r>   -3.1610    1.0000 </r>
       <r>   -1.0007    1.0000 </r>
       <r>    2.8978    1.0000 </r>
       <r>    2.8978    1.0000 </r>
       <r>    6.2245    0.0000 </r>
       <r>    6.7415    0.0000 </r>
       <r>   14.5360    0.0000 </r>
       <r>   14.5360    0.0000 </r>
       <r>   16.8042    0.0000 </r>
       <r>   17.1558    0.0000 </r>
       <r>   17.5435    0.0000 </r>
       <r>   17.5435    0.0000 </r>
       <r>   19.1770    0.0000 </r>
       <r>   19.4784    0.0000 </r>
       <r>   22.6588    0.0000 </r>
       <r>   23.4189    0.0000 </r>
      </set>
      <set comment="kpoint 16">
       <r>   -2.2317    1.0000 </r>
       <r>   -1.9426    1.0000 </r>
       <r>    2.0292    1.0000 </r>
       <r>    2.9580    1.0000 </r>
       <r>    6.5249    0.0000 </r>
       <r>    7.7609    0.0000 </r>
       <r>   14.3158    0.0000 </r>
       <r>   14.7232    0.0000 </r>
       <r>   14.9667    0.0000 </r>
       <r>   15.2877    0.0000 </r>
       <r>   19.1924    0.0000 </r>
       <r>   19.2404    0.0000 </r>
       <r>   19.3895    0.0000 </r>
       <r>   20.2316    0.0000 </r>
       <r>   22.5685    0.0000 </r>
       <r>   22.9991    0.0000 </r>
      </set>
      <set comment="kpoint 17">
       <r>   -4.5154    1.0000 </r>
       <r>    0.7423    1.0000 </r>
       <r>    2.5657    1.0000 </r>
       <r>    3.8610    1.0000 </r>
       <r>    8.1895    0.0000 </r>
       <r>    9.4246    0.0000 </r>
       <r>    9.7180    0.0000 </r>
       <r>   11.6854    0.0000 </r>
       <r>   13.7816    0.0000 </r>
       <r>   16.4655    0.0000 </r>
       <r>   16.8510    0.0000 </r>
       <r>   18.0685    0.0000 </r>
       <r>   19.2305    0.0000 </r>
       <r>   20.9629    0.0000 </r>
       <r>   21.1116    0.0000 </r>
       <r>   23.9767    0.0000 </r>
      </set>
      <set comment="kpoint 18">
       <r>   -3.4961    1.0000 </r>
       <r>   -0.7582    1.0000 </r>
       <r>    1.9982    1.0000 </r>
       <r>    3.3383    1.0000 </r>
       <r>    8.6709    0.0000 </r>
       <r>    9.0748    0.0000 </r>
       <r>   11.0345    0.0000 </r>
       <r>   12.1369    0.0000 </r>
       <r>   13.8582    0.0000 </r>
       <r>   15.4970    0.0000 </r>
       <r>   17.7056    0.0000 </r>
       <r>   18.8903    0.0000 </r>
       <r>   20.0217    0.0000 </r>
       <r>   21.4761    0.0000 </r>
       <r>   22.8873    0.0000 </r>
       <r>   23.6709    0.0000 </r>
      </set>
      <set comment="kpoint 19">
       <r>   -2.9622    1.0000 </r>
       <r>   -1.0876    1.0000 </r>
       <r>    2.0933    1.0000 </r>
       <r>    2.4979    1.0000 </r>
       <r>    7.8299    0.0000 </r>
       <r>    8.2004    0.0000 </r>
       <r>   11.6958    0.0000 </r>
       <r>   14.1649    0.0000 </r>
       <r>   14.6667    0.0000 </r>
       <r>   16.5352    0.0000 </r>
       <r>   17.9316    0.0000 </r>
       <r>   19.4975    0.0000 </r>
       <r>   20.0087    0.0000 </r>
       <r>   20.9583    0.0000 </r>
       <r>   22.2340    0.0000 </r>
       <r>   22.9534    0.0000 </r>
      </set>
      <set comment="kpoint 20">
       <r>   -2.5376    1.0000 </r>
       <r>   -1.4761    1.0000 </r>
       <r>    1.4715    1.0000 </r>
       <r>    2.5872    1.0000 </r>
       <r>    8.3510    0.0000 </r>
       <r>   10.4412    0.0000 </r>
       <r>   11.1840    0.0000 </r>
       <r>   11.3416    0.0000 </r>
       <r>   14.5776    0.0000 </r>
       <r>   15.7410    0.0000 </r>
       <r>   18.6420    0.0000 </r>
       <r>   19.9234    0.0000 </r>
       <r>   20.7745    0.0000 </r>
       <r>   21.8911    0.0000 </r>
       <r>   23.0138    0.0000 </r>
       <r>   23.8501    0.0000 </r>
      </set>
     </set>
     <set comment="spin 2">
      <set comment="kpoint 1">
       <r>   -6.1991    1.0000 </r>
       <r>    5.6114    1.0000 </r>
       <r>    5.6114    1.0000 </r>
       <r>    5.6114    1.0000 </r>
       <r>    8.1670    0.0000 </r>
       <r>    8.1670    0.0000 </r>
       <r>    8.1670    0.0000 </r>
       <r>    8.7377    0.0000 </r>
       <r>   13.3189    0.0000 </r>
       <r>   13.3189    0.0000 </r>
       <r>   13.4896    0.0000 </r>
       <r>   16.7911    0.0000 </r>
       <r>   16.7911    0.0000 </r>
       <r>   16.7911    0.0000 </r>
       <r>   20.8861    0.0000 </r>
       <r>   28.4604    0.0000 </r>
      </set>
      <set comment="kpoint 2">
       <r>   -5.9379    1.0000 </r>
       <r>    3.6916    1.0000 </r>
       <r>    5.2621    1.0000 </r>
       <r>    5.2621    1.0000 </r>
       <r>    7.9871    0.0000 </r>
       <r>    8.6780    0.0000 </r>
       <r>    8.6780    0.0000 </r>
       <r>   10.4558    0.0000 </r>
       <r>   12.7706    0.0000 </r>
       <r>   12.7706    0.0000 </r>
       <r>   14.4349    0.0000 </r>
       <r>   16.1789    0.0000 </r>
       <r>   18.2253    0.0000 </r>
       <r>   18.2253    0.0000 </r>
       <r>   22.3979    0.0000 </r>
       <r>   25.9789    0.0000 </r>
      </set>
      <set comment="kpoint 3">
       <r>   -5.1861    1.0000 </r>
       <r>    1.1102    1.0000 </r>
       <r>    4.7547    1.0000 </r>
       <r>    4.7547    1.0000 </r>
       <r>    7.4437    0.0000 </r>
       <r>    9.1351    0.0000 </r>
       <r>    9.1351    0.0000 </r>
       <r>   12.9193    0.0000 </r>
       <r>   13.0496    0.0000 </r>
       <r>   13.0497    0.0000 </r>
       <r>   14.4380    0.0000 </r>
       <r>   18.0717    0.0000 </r>
       <r>   20.4869    0.0000 </r>
       <r>   20.4876    0.0000 </r>
       <r>   22.7810    0.0000 </r>
       <r>   22.8426    0.0000 </r>
      </set>
      <set comment="kpoint 4">
       <r>   -4.1696    1.0000 </r>
       <r>   -0.8828    1.0000 </r>
       <r>    4.4695    1.0000 </r>
       <r>    4.4696    1.0000 </r>
       <r>    7.1179    0.0000 </r>
       <r>    8.9985    0.0000 </r>
       <r>    8.9985    0.0000 </r>
       <r>   13.3721    0.0000 </r>
       <r>   15.0320    0.0000 </r>
       <r>   15.0320    0.0000 </r>
       <r>   15.9914    0.0000 </r>
       <r>   18.0501    0.0000 </r>
       <r>   18.0501    0.0000 </r>
       <r>   19.0620    0.0000 </r>
       <r>   22.9920    0.0000 </r>
       <r>   25.2982    0.0000 </r>
      </set>
      <set comment="kpoint 5">
       <r>   -5.8495    1.0000 </r>
       <r>    3.9623    1.0000 </r>
       <r>    4.6623    1.0000 </r>
       <r>    4.6623    1.0000 </r>
       <r>    7.4989    0.0000 </r>
       <r>    9.5437    0.0000 </r>
       <r>    9.5437    0.0000 </r>
       <r>    9.8963    0.0000 </r>
       <r>   12.0223    0.0000 </r>
       <r>   13.7082    0.0000 </r>
       <r>   14.8459    0.0000 </r>
       <r>   17.3979    0.0000 </r>
       <r>   17.3979    0.0000 </r>
       <r>   17.9251    0.0000 </r>
       <r>   23.1542    0.0000 </r>
       <r>   25.4921    0.0000 </r>
      </set>
      <set comment="kpoint 6">
       <r>   -5.2538    1.0000 </r>
       <r>    1.8791    1.0000 </r>
       <r>    4.0803    1.0000 </r>
       <r>    4.1293    1.0000 </r>
       <r>    7.6868    0.0000 </r>
       <r>    9.4350    0.0000 </r>
       <r>   10.1731    0.0000 </r>
       <r>   10.3218    0.0000 </r>
       <r>   13.6177    0.0000 </r>
       <r>   14.0839    0.0000 </r>
       <r>   15.7515    0.0000 </r>
       <r>   17.5954    0.0000 </r>
       <r>   19.0285    0.0000 </r>
       <r>   20.4426    0.0000 </r>
       <r>   22.1883    0.0000 </r>
       <r>   22.8093    0.0000 </r>
      </set>
      <set comment="kpoint 7">
       <r>   -4.2659    1.0000 </r>
       <r>   -0.2640    1.0000 </r>
       <r>    3.4019    1.0000 </r>
       <r>    3.9419    1.0000 </r>
       <r>    7.7432    0.0000 </r>
       <r>    9.3873    0.0000 </r>
       <r>   10.1240    0.0000 </r>
       <r>   11.3570    0.0000 </r>
       <r>   15.0250    0.0000 </r>
       <r>   15.7827    0.0000 </r>
       <r>   16.3725    0.0000 </r>
       <r>   17.7357    0.0000 </r>
       <r>   18.4892    0.0000 </r>
       <r>   21.1510    0.0000 </r>
       <r>   22.9273    0.0000 </r>
       <r>   23.0571    0.0000 </r>
      </set>
      <set comment="kpoint 8">
       <r>   -3.7224    1.0000 </r>
       <r>   -1.1079    1.0000 </r>
       <r>    2.9968    1.0000 </r>
       <r>    4.1344    1.0000 </r>
       <r>    7.8293    0.0000 </r>
       <r>    9.3119    0.0000 </r>
       <r>    9.7384    0.0000 </r>
       <r>   13.7046    0.0000 </r>
       <r>   14.2296    0.0000 </r>
       <r>   14.6027    0.0000 </r>
       <r>   16.4927    0.0000 </r>
       <r>   18.6412    0.0000 </r>
       <r>   19.1507    0.0000 </r>
       <r>   19.6276    0.0000 </r>
       <r>   23.5757    0.0000 </r>
       <r>   25.3769    0.0000 </r>
      </set>
      <set comment="kpoint 9">
       <r>   -4.6264    1.0000 </r>
       <r>    0.4026    1.0000 </r>
       <r>    3.0062    1.0000 </r>
       <r>    4.6375    1.0000 </r>
       <r>    8.2113    0.0000 </r>
       <r>    9.4951    0.0000 </r>
       <r>    9.5188    0.0000 </r>
       <r>   12.1780    0.0000 </r>
       <r>   12.3549    0.0000 </r>
       <r>   15.3796    0.0000 </r>
       <r>   16.6464    0.0000 </r>
       <r>   17.7154    0.0000 </r>
       <r>   19.6163    0.0000 </r>
       <r>   21.4018    0.0000 </r>
       <r>   21.6665    0.0000 </r>
       <r>   22.9488    0.0000 </r>
      </set>
      <set comment="kpoint 10">
       <r>   -5.5097    1.0000 </r>
       <r>    2.4885    1.0000 </r>
       <r>    3.6915    1.0000 </r>
       <r>    5.2188    1.0000 </r>
       <r>    8.5994    0.0000 </r>
       <r>    8.8876    0.0000 </r>
       <r>    9.1350    0.0000 </r>
       <r>   11.1488    0.0000 </r>
       <r>   11.8339    0.0000 </r>
       <r>   14.0414    0.0000 </r>
       <r>   15.6064    0.0000 </r>
       <r>   16.8346    0.0000 </r>
       <r>   18.2764    0.0000 </r>
       <r>   20.6303    0.0000 </r>
       <r>   22.1912    0.0000 </r>
       <r>   23.9784    0.0000 </r>
      </set>
      <set comment="kpoint 11">
       <r>   -4.8175    1.0000 </r>
       <r>    1.4598    1.0000 </r>
       <r>    3.5188    1.0000 </r>
       <r>    3.5188    1.0000 </r>
       <r>    6.5690    0.0000 </r>
       <r>    8.2399    0.0000 </r>
       <r>   11.9250    0.0000 </r>
       <r>   11.9250    0.0000 </r>
       <r>   14.2111    0.0000 </r>
       <r>   14.8733    0.0000 </r>
       <r>   17.6440    0.0000 </r>
       <r>   18.8815    0.0000 </r>
       <r>   18.8815    0.0000 </r>
       <r>   19.7845    0.0000 </r>
       <r>   22.1680    0.0000 </r>
       <r>   22.1680    0.0000 </r>
      </set>
      <set comment="kpoint 12">
       <r>   -3.9322    1.0000 </r>
       <r>   -0.0174    1.0000 </r>
       <r>    2.5618    1.0000 </r>
       <r>    3.2629    1.0000 </r>
       <r>    6.8521    0.0000 </r>
       <r>    8.3214    0.0000 </r>
       <r>   12.1325    0.0000 </r>
       <r>   12.3266    0.0000 </r>
       <r>   16.4271    0.0000 </r>
       <r>   16.6723    0.0000 </r>
       <r>   17.1368    0.0000 </r>
       <r>   17.7160    0.0000 </r>
       <r>   19.6235    0.0000 </r>
       <r>   20.5099    0.0000 </r>
       <r>   21.7647    0.0000 </r>
       <r>   23.3291    0.0000 </r>
      </set>
      <set comment="kpoint 13">
       <r>   -3.0370    1.0000 </r>
       <r>   -1.1690    1.0000 </r>
       <r>    1.6283    1.0000 </r>
       <r>    3.4277    1.0000 </r>
       <r>    7.0892    0.0000 </r>
       <r>   10.5331    0.0000 </r>
       <r>   11.8395    0.0000 </r>
       <r>   11.8662    0.0000 </r>
       <r>   14.5433    0.0000 </r>
       <r>   14.6141    0.0000 </r>
       <r>   18.8974    0.0000 </r>
       <r>   19.2374    0.0000 </r>
       <r>   19.6600    0.0000 </r>
       <r>   22.8263    0.0000 </r>
       <r>   22.9955    0.0000 </r>
       <r>   23.3493    0.0000 </r>
      </set>
      <set comment="kpoint 14">
       <r>   -3.6728    1.0000 </r>
       <r>   -0.4326    1.0000 </r>
       <r>    1.5579    1.0000 </r>
       <r>    3.9658    1.0000 </r>
       <r>    7.6790    0.0000 </r>
       <r>   11.0168    0.0000 </r>
       <r>   11.3545    0.0000 </r>
       <r>   12.1146    0.0000 </r>
       <r>   12.4903    0.0000 </r>
       <r>   13.6657    0.0000 </r>
       <r>   18.8300    0.0000 </r>
       <r>   19.4451    0.0000 </r>
       <r>   20.2765    0.0000 </r>
       <r>   22.0022    0.0000 </r>
       <r>   22.1965    0.0000 </r>
       <r>   23.2243    0.0000 </r>
      </set>
      <set comment="kpoint 15">
       <r>   -3.1610    1.0000 </r>
       <r>   -1.0007    1.0000 </r>
       <r>    2.8978    1.0000 </r>
       <r>    2.8978    1.0000 </r>
       <r>    6.2245    0.0000 </r>
       <r>    6.7415    0.0000 </r>
       <r>   14.5360    0.0000 </r>
       <r>   14.5360    0.0000 </r>
       <r>   16.8042    0.0000 </r>
       <r>   17.1558    0.0000 </r>
       <r>   17.5435    0.0000 </r>
       <r>   17.5435    0.0000 </r>
       <r>   19.1770    0.0000 </r>
       <r>   19.4784    0.0000 </r>
       <r>   22.6588    0.0000 </r>
       <r>   23.4189    0.0000 </r>
      </set>
      <set comment="kpoint 16">
       <r>   -2.2317    1.0000 </r>
       <r>   -1.9426    1.0000 </r>
       <r>    2.0292    1.0000 </r>
       <r>    2.9580    1.0000 </r>
       <r>    6.5249    0.0000 </r>
       <r>    7.7609    0.0000 </r>
       <r>   14.3158    0.0000 </r>
       <r>   14.7232    0.0000 </r>
       <r>   14.9667    0.0000 </r>
       <r>   15.2877    0.0000 </r>
       <r>   19.1924    0.0000 </r>
       <r>   19.2404    0.0000 </r>
       <r>   19.3895    0.0000 </r>
       <r>   20.2316    0.0000 </r>
       <r>   22.5685    0.0000 </r>
       <r>   22.9991    0.0000 </r>
      </set>
      <set comment="kpoint 17">
       <r>   -4.5154    1.0000 </r>
       <r>    0.7423    1.0000 </r>
       <r>    2.5657    1.0000 </r>
       <r>    3.8610    1.0000 </r>
       <r>    8.1895    0.0000 </r>
       <r>    9.4246    0.0000 </r>
       <r>    9.7180    0.0000 </r>
       <r>   11.6854    0.0000 </r>
       <r>   13.7816    0.0000 </r>
       <r>   16.4655    0.0000 </r>
       <r>   16.8510    0.0000 </r>
       <r>   18.0685    0.0000 </r>
       <r>   19.2305    0.0000 </r>
       <r>   20.9629    0.0000 </r>
       <r>   21.1116    0.0000 </r>
       <r>   23.9688    0.0000 </r>
      </set>
      <set comment="kpoint 18">
       <r>   -3.4961    1.0000 </r>
       <r>   -0.7582    1.0000 </r>
       <r>    1.9982    1.0000 </r>
       <r>    3.3383    1.0000 </r>
       <r>    8.6709    0.0000 </r>
       <r>    9.0748    0.0000 </r>
       <r>   11.0345    0.0000 </r>
       <r>   12.1369    0.0000 </r>
       <r>   13.8582    0.0000 </r>
       <r>   15.4970    0.0000 </r>
       <r>   17.7056    0.0000 </r>
       <r>   18.8903    0.0000 </r>
       <r>   20.0217    0.0000 </r>
       <r>   21.4761    0.0000 </r>
       <r>   22.8872    0.0000 </r>
       <r>   23.6717    0.0000 </r>
      </set>
      <set comment="kpoint 19">
       <r>   -2.9622    1.0000 </r>
       <r>   -1.0876    1.0000 </r>
       <r>    2.0933    1.0000 </r>
       <r>    2.4979    1.0000 </r>
       <r>    7.8299    0.0000 </r>
       <r>    8.2004    0.0000 </r>
       <r>   11.6958    0.0000 </r>
       <r>   14.1649    0.0000 </r>
       <r>   14.6667    0.0000 </r>
       <r>   16.5352    0.0000 </r>
       <r>   17.9316    0.0000 </r>
       <r>   19.4975    0.0000 </r>
       <r>   20.0087    0.0000 </r>
       <r>   20.9583    0.0000 </r>
       <r>   22.2340    0.0000 </r>
       <r>   22.9532    0.0000 </r>
      </set>
      <set comment="kpoint 20">
       <r>   -2.5376    1.0000 </r>
       <r>   -1.4761    1.0000 </r>
       <r>    1.4715    1.0000 </r>
       <r>    2.5872    1.0000 </r>
       <r>    8.3510    0.0000 </r>
       <r>   10.4412    0.0000 </r>
       <r>   11.1840    0.0000 </r>
       <r>   11.3416    0.0000 </r>
       <r>   14.5776    0.0000 </r>
       <r>   15.7410    0.0000 </r>
       <r>   18.6420    0.0000 </r>
       <r>   19.9234    0.0000 </r>
       <r>   20.7745    0.0000 </r>
       <r>   21.8911    0.0000 </r>
       <r>   23.0137    0.0000 </r>
       <r>   23.8536    0.0000 </r>
      </set>
     </set>
    </set>
   </array>
  </eigenvalues>
  <separator name="orbital magnetization" >
   <v name="MAGDIPOLOUT">      0.00000000      0.00000000      0.00000000</v>
  </separator>
  <dos>
   <i name="efermi">      5.61115872 </i>
   <total>
    <array>
     <dimension dim="1">gridpoints</dimension>
     <dimension dim="2">spin</dimension>
     <field>energy</field>
     <field>total</field>
     <field>integrated</field>
     <set>
      <set comment="spin 1">
       <r>    -7.9321     0.0000     0.0000 </r>
       <r>    -7.8050     0.0000     0.0000 </r>
       <r>    -7.6779     0.0000     0.0000 </r>
       <r>    -7.5508     0.0000     0.0000 </r>
       <r>    -7.4238     0.0000     0.0000 </r>
       <r>    -7.2967     0.0000     0.0000 </r>
       <r>    -7.1696     0.0000     0.0000 </r>
       <r>    -7.0425     0.0000     0.0000 </r>
       <r>    -6.9154     0.0000     0.0000 </r>
       <r>    -6.7883     0.0000     0.0000 </r>
       <r>    -6.6612     0.0000     0.0000 </r>
       <r>    -6.5342     0.0000     0.0000 </r>
       <r>    -6.4071     0.0000     0.0000 </r>
       <r>    -6.2800     0.0000     0.0000 </r>
       <r>    -6.1529     0.0031     0.0000 </r>
       <r>    -6.0258     0.0441     0.0025 </r>
       <r>    -5.8987     0.0887     0.0124 </r>
       <r>    -5.7717     0.1006     0.0240 </r>
       <r>    -5.6446     0.1220     0.0382 </r>
       <r>    -5.5175     0.1452     0.0551 </r>
       <r>    -5.3904     0.1649     0.0749 </r>
       <r>    -5.2633     0.1743     0.0966 </r>
       <r>    -5.1362     0.1870     0.1194 </r>
       <r>    -5.0091     0.2032     0.1442 </r>
       <r>    -4.8821     0.2202     0.1711 </r>
       <r>    -4.7550     0.2379     0.2002 </r>
       <r>    -4.6279     0.2565     0.2316 </r>
       <r>    -4.5008     0.2736     0.2652 </r>
       <r>    -4.3737     0.2964     0.3014 </r>
       <r>    -4.2466     0.3230     0.3407 </r>
       <r>    -4.1195     0.3833     0.3848 </r>
       <r>    -3.9925     0.4395     0.4376 </r>
       <r>    -3.8654     0.4503     0.4946 </r>
       <r>    -3.7383     0.4149     0.5501 </r>
       <r>    -3.6112     0.4614     0.6055 </r>
       <r>    -3.4841     0.4221     0.6626 </r>
       <r>    -3.3570     0.3837     0.7137 </r>
       <r>    -3.2300     0.3553     0.7606 </r>
       <r>    -3.1029     0.3391     0.8045 </r>
       <r>    -2.9758     0.3271     0.8470 </r>
       <r>    -2.8487     0.3395     0.8895 </r>
       <r>    -2.7216     0.3161     0.9316 </r>
       <r>    -2.5945     0.2505     0.9680 </r>
       <r>    -2.4674     0.1084     0.9913 </r>
       <r>    -2.3404     0.0304     0.9985 </r>
       <r>    -2.2133     0.0000     1.0000 </r>
       <r>    -2.0862     0.0000     1.0000 </r>
       <r>    -1.9591     0.0000     1.0000 </r>
       <r>    -1.8320     0.0237     1.0012 </r>
       <r>    -1.7049     0.0617     1.0065 </r>
       <r>    -1.5779     0.1114     1.0174 </r>
       <r>    -1.4508     0.2950     1.0407 </r>
       <r>    -1.3237     0.3610     1.0813 </r>
       <r>    -1.1966     0.4107     1.1307 </r>
       <r>    -1.0695     0.6061     1.1890 </r>
       <r>    -0.9424     0.7954     1.2834 </r>
       <r>    -0.8153     0.6087     1.3737 </r>
       <r>    -0.6883     0.4191     1.4357 </r>
       <r>    -0.5612     0.3506     1.4843 </r>
       <r>    -0.4341     0.3080     1.5259 </r>
       <r>    -0.3070     0.2817     1.5633 </r>
       <r>    -0.1799     0.2608     1.5977 </r>
       <r>    -0.0528     0.2417     1.6296 </r>
       <r>     0.0742     0.2238     1.6592 </r>
       <r>     0.2013     0.2072     1.6866 </r>
       <r>     0.3284     0.1920     1.7119 </r>
       <r>     0.4555     0.1712     1.7353 </r>
       <r>     0.5826     0.1481     1.7554 </r>
       <r>     0.7097     0.1351     1.7733 </r>
       <r>     0.8368     0.1295     1.7901 </r>
       <r>     0.9638     0.1245     1.8063 </r>
       <r>     1.0909     0.1197     1.8218 </r>
       <r>     1.2180     0.1150     1.8367 </r>
       <r>     1.3451     0.1103     1.8510 </r>
       <r>     1.4722     0.1851     1.8677 </r>
       <r>     1.5993     0.5958     1.9135 </r>
       <r>     1.7264     0.6198     1.9876 </r>
       <r>     1.8534     0.6398     2.0686 </r>
       <r>     1.9805     0.5674     2.1463 </r>
       <r>     2.1076     0.5547     2.2207 </r>
       <r>     2.2347     0.5028     2.2850 </r>
       <r>     2.3618     0.4933     2.3483 </r>
       <r>     2.4889     0.4803     2.4102 </r>
       <r>     2.6159     0.7895     2.5026 </r>
       <r>     2.7430     0.6910     2.5860 </r>
       <r>     2.8701     0.7950     2.6800 </r>
       <r>     2.9972     0.8238     2.7880 </r>
       <r>     3.1243     0.7660     2.8861 </r>
       <r>     3.2514     0.7533     2.9827 </r>
       <r>     3.3785     0.7515     3.0777 </r>
       <r>     3.5055     0.7472     3.1731 </r>
       <r>     3.6326     0.7375     3.2675 </r>
       <r>     3.7597     0.7172     3.3601 </r>
       <r>     3.8868     0.6944     3.4497 </r>
       <r>     4.0139     0.6745     3.5364 </r>
       <r>     4.1410     0.6825     3.6229 </r>
       <r>     4.2680     0.6169     3.7059 </r>
       <r>     4.3951     0.5087     3.7779 </r>
       <r>     4.5222     0.3935     3.8343 </r>
       <r>     4.6493     0.2950     3.8784 </r>
       <r>     4.7764     0.2264     3.9107 </r>
       <r>     4.9035     0.1897     3.9371 </r>
       <r>     5.0306     0.1606     3.9593 </r>
       <r>     5.1576     0.1391     3.9782 </r>
       <r>     5.2847     0.0651     3.9929 </r>
       <r>     5.4118     0.0243     3.9984 </r>
       <r>     5.5389     0.0032     3.9999 </r>
       <r>     5.6660     0.0000     4.0000 </r>
       <r>     5.7931     0.0000     4.0000 </r>
       <r>     5.9201     0.0000     4.0000 </r>
       <r>     6.0472     0.0000     4.0000 </r>
       <r>     6.1743     0.0000     4.0000 </r>
       <r>     6.3014     0.0268     4.0011 </r>
       <r>     6.4285     0.0581     4.0066 </r>
       <r>     6.5556     0.0809     4.0153 </r>
       <r>     6.6827     0.1202     4.0282 </r>
       <r>     6.8097     0.1490     4.0453 </r>
       <r>     6.9368     0.1829     4.0662 </r>
       <r>     7.0639     0.2223     4.0919 </r>
       <r>     7.1910     0.2760     4.1232 </r>
       <r>     7.3181     0.3584     4.1632 </r>
       <r>     7.4452     0.4636     4.2152 </r>
       <r>     7.5723     0.6145     4.2829 </r>
       <r>     7.6993     0.8478     4.3750 </r>
       <r>     7.8264     0.9766     4.4934 </r>
       <r>     7.9535     1.0402     4.6219 </r>
       <r>     8.0806     0.9893     4.7521 </r>
       <r>     8.2077     0.9478     4.8747 </r>
       <r>     8.3348     0.7656     4.9824 </r>
       <r>     8.4618     0.5536     5.0647 </r>
       <r>     8.5889     0.3626     5.1214 </r>
       <r>     8.7160     0.2775     5.1583 </r>
       <r>     8.8431     0.3771     5.1998 </r>
       <r>     8.9702     0.4901     5.2548 </r>
       <r>     9.0973     0.7703     5.3304 </r>
       <r>     9.2244     1.3937     5.4669 </r>
       <r>     9.3514     1.6680     5.6787 </r>
       <r>     9.4785     0.8121     5.8700 </r>
       <r>     9.6056     0.6896     5.9603 </r>
       <r>     9.7327     0.6802     6.0471 </r>
       <r>     9.8598     0.6527     6.1321 </r>
       <r>     9.9869     0.5935     6.2116 </r>
       <r>    10.1139     0.5139     6.2821 </r>
       <r>    10.2410     0.4867     6.3445 </r>
       <r>    10.3681     0.4877     6.4068 </r>
       <r>    10.4952     0.4771     6.4692 </r>
       <r>    10.6223     0.4240     6.5266 </r>
       <r>    10.7494     0.3750     6.5772 </r>
       <r>    10.8765     0.3491     6.6229 </r>
       <r>    11.0035     0.3464     6.6669 </r>
       <r>    11.1306     0.6910     6.7317 </r>
       <r>    11.2577     0.6880     6.8227 </r>
       <r>    11.3848     0.6203     6.9049 </r>
       <r>    11.5119     0.5751     6.9789 </r>
       <r>    11.6390     0.6023     7.0532 </r>
       <r>    11.7660     0.6851     7.1343 </r>
       <r>    11.8931     0.8133     7.2294 </r>
       <r>    12.0202     0.8959     7.3384 </r>
       <r>    12.1473     0.7115     7.4518 </r>
       <r>    12.2744     0.5821     7.5293 </r>
       <r>    12.4015     0.5796     7.6023 </r>
       <r>    12.5286     0.5793     7.6763 </r>
       <r>    12.6556     0.5657     7.7491 </r>
       <r>    12.7827     0.5485     7.8199 </r>
       <r>    12.9098     0.5386     7.8890 </r>
       <r>    13.0369     0.5218     7.9565 </r>
       <r>    13.1640     0.5020     8.0215 </r>
       <r>    13.2911     0.4831     8.0841 </r>
       <r>    13.4182     0.4915     8.1450 </r>
       <r>    13.5452     0.5023     8.2088 </r>
       <r>    13.6723     0.4686     8.2706 </r>
       <r>    13.7994     0.4625     8.3288 </r>
       <r>    13.9265     0.5883     8.3933 </r>
       <r>    14.0536     0.7340     8.4783 </r>
       <r>    14.1807     0.7162     8.5682 </r>
       <r>    14.3077     0.7421     8.6605 </r>
       <r>    14.4348     0.7986     8.7592 </r>
       <r>    14.5619     0.8563     8.8604 </r>
       <r>    14.6890     1.0643     8.9952 </r>
       <r>    14.8161     0.8085     9.1018 </r>
       <r>    14.9432     0.7558     9.2013 </r>
       <r>    15.0703     0.7366     9.2949 </r>
       <r>    15.1973     0.7569     9.3901 </r>
       <r>    15.3244     0.7490     9.4861 </r>
       <r>    15.4515     0.7113     9.5793 </r>
       <r>    15.5786     0.7100     9.6686 </r>
       <r>    15.7057     0.6619     9.7568 </r>
       <r>    15.8328     0.6584     9.8427 </r>
       <r>    15.9598     0.5861     9.9202 </r>
       <r>    16.0869     0.5731     9.9932 </r>
       <r>    16.2140     0.5974    10.0671 </r>
       <r>    16.3411     0.6584    10.1467 </r>
       <r>    16.4682     0.6137    10.2313 </r>
       <r>    16.5953     0.5582    10.3036 </r>
       <r>    16.7224     0.4242    10.3654 </r>
       <r>    16.8494     0.3731    10.4156 </r>
       <r>    16.9765     0.3648    10.4620 </r>
       <r>    17.1036     0.4053    10.5104 </r>
       <r>    17.2307     0.4568    10.5656 </r>
       <r>    17.3578     0.4867    10.6257 </r>
       <r>    17.4849     0.4956    10.6885 </r>
       <r>    17.6119     0.5011    10.7508 </r>
       <r>    17.7390     0.9785    10.8416 </r>
       <r>    17.8661     0.9625    10.9655 </r>
       <r>    17.9932     0.8990    11.0842 </r>
       <r>    18.1203     0.8663    11.1939 </r>
       <r>    18.2474     0.8747    11.3062 </r>
       <r>    18.3745     0.8627    11.4162 </r>
       <r>    18.5015     0.8432    11.5248 </r>
       <r>    18.6286     0.8063    11.6298 </r>
       <r>    18.7557     0.8854    11.7350 </r>
       <r>    18.8828     0.9237    11.8526 </r>
       <r>    19.0099     0.9648    11.9679 </r>
       <r>    19.1370     0.9481    12.0914 </r>
       <r>    19.2641     1.0424    12.2137 </r>
       <r>    19.3911     1.0930    12.3513 </r>
       <r>    19.5182     1.0670    12.4887 </r>
       <r>    19.6453     1.0866    12.6255 </r>
       <r>    19.7724     0.9863    12.7577 </r>
       <r>    19.8995     0.8520    12.8749 </r>
       <r>    20.0266     0.6512    12.9682 </r>
       <r>    20.1536     0.5934    13.0458 </r>
       <r>    20.2807     0.5613    13.1191 </r>
       <r>    20.4078     0.5327    13.1886 </r>
       <r>    20.5349     0.5792    13.2578 </r>
       <r>    20.6620     0.5886    13.3331 </r>
       <r>    20.7891     0.5462    13.4086 </r>
       <r>    20.9162     0.5318    13.4758 </r>
       <r>    21.0432     0.5331    13.5435 </r>
       <r>    21.1703     0.5366    13.6113 </r>
       <r>    21.2974     0.5372    13.6797 </r>
       <r>    21.4245     0.5245    13.7473 </r>
       <r>    21.5516     0.6137    13.8180 </r>
       <r>    21.6787     0.7138    13.9030 </r>
       <r>    21.8057     0.7135    13.9945 </r>
       <r>    21.9328     0.6519    14.0829 </r>
       <r>    22.0599     0.6288    14.1628 </r>
       <r>    22.1870     0.6228    14.2422 </r>
       <r>    22.3141     0.8027    14.3333 </r>
       <r>    22.4412     0.8306    14.4393 </r>
       <r>    22.5683     0.7835    14.5418 </r>
       <r>    22.6953     0.7407    14.6376 </r>
       <r>    22.8224     0.7648    14.7296 </r>
       <r>    22.9495     1.5112    14.8732 </r>
       <r>    23.0766     1.0430    15.0209 </r>
       <r>    23.2037     1.1833    15.1591 </r>
       <r>    23.3308     1.3433    15.3193 </r>
       <r>    23.4578     1.0922    15.4719 </r>
       <r>    23.5849     0.9378    15.6005 </r>
       <r>    23.7120     0.7866    15.7151 </r>
       <r>    23.8391     0.3355    15.7873 </r>
       <r>    23.9662     0.1994    15.8180 </r>
       <r>    24.0933     0.1601    15.8392 </r>
       <r>    24.2204     0.1471    15.8587 </r>
       <r>    24.3474     0.1346    15.8766 </r>
       <r>    24.4745     0.1225    15.8929 </r>
       <r>    24.6016     0.1109    15.9078 </r>
       <r>    24.7287     0.0998    15.9212 </r>
       <r>    24.8558     0.0892    15.9332 </r>
       <r>    24.9829     0.0790    15.9439 </r>
       <r>    25.1100     0.0693    15.9533 </r>
       <r>    25.2370     0.0601    15.9615 </r>
       <r>    25.3641     0.1396    15.9791 </r>
       <r>    25.4912     0.0195    15.9823 </r>
       <r>    25.6183     0.0182    15.9847 </r>
       <r>    25.7454     0.0164    15.9869 </r>
       <r>    25.8725     0.0141    15.9889 </r>
       <r>    25.9995     0.0116    15.9905 </r>
       <r>    26.1266     0.0104    15.9919 </r>
       <r>    26.2537     0.0093    15.9931 </r>
       <r>    26.3808     0.0083    15.9943 </r>
       <r>    26.5079     0.0073    15.9953 </r>
       <r>    26.6350     0.0064    15.9961 </r>
       <r>    26.7621     0.0055    15.9969 </r>
       <r>    26.8891     0.0047    15.9975 </r>
       <r>    27.0162     0.0040    15.9981 </r>
       <r>    27.1433     0.0033    15.9985 </r>
       <r>    27.2704     0.0027    15.9989 </r>
       <r>    27.3975     0.0022    15.9992 </r>
       <r>    27.5246     0.0017    15.9995 </r>
       <r>    27.6516     0.0013    15.9997 </r>
       <r>    27.7787     0.0009    15.9998 </r>
       <r>    27.9058     0.0006    15.9999 </r>
       <r>    28.0329     0.0003    16.0000 </r>
       <r>    28.1600     0.0002    16.0000 </r>
       <r>    28.2871     0.0001    16.0000 </r>
       <r>    28.4142     0.0000    16.0000 </r>
       <r>    28.5412     0.0000    16.0000 </r>
       <r>    28.6683     0.0000    16.0000 </r>
       <r>    28.7954     0.0000    16.0000 </r>
       <r>    28.9225     0.0000    16.0000 </r>
       <r>    29.0496     0.0000    16.0000 </r>
       <r>    29.1767     0.0000    16.0000 </r>
       <r>    29.3037     0.0000    16.0000 </r>
       <r>    29.4308     0.0000    16.0000 </r>
       <r>    29.5579     0.0000    16.0000 </r>
       <r>    29.6850     0.0000    16.0000 </r>
       <r>    29.8121     0.0000    16.0000 </r>
       <r>    29.9392     0.0000    16.0000 </r>
       <r>    30.0663     0.0000    16.0000 </r>
       <r>    30.1933     0.0000    16.0000 </r>
      </set>
      <set comment="spin 2">
       <r>    -7.9321     0.0000     0.0000 </r>
       <r>    -7.8050     0.0000     0.0000 </r>
       <r>    -7.6779     0.0000     0.0000 </r>
       <r>    -7.5508     0.0000     0.0000 </r>
       <r>    -7.4238     0.0000     0.0000 </r>
       <r>    -7.2967     0.0000     0.0000 </r>
       <r>    -7.1696     0.0000     0.0000 </r>
       <r>    -7.0425     0.0000     0.0000 </r>
       <r>    -6.9154     0.0000     0.0000 </r>
       <r>    -6.7883     0.0000     0.0000 </r>
       <r>    -6.6612     0.0000     0.0000 </r>
       <r>    -6.5342     0.0000     0.0000 </r>
       <r>    -6.4071     0.0000     0.0000 </r>
       <r>    -6.2800     0.0000     0.0000 </r>
       <r>    -6.1529     0.0031     0.0000 </r>
       <r>    -6.0258     0.0441     0.0025 </r>
       <r>    -5.8987     0.0887     0.0124 </r>
       <r>    -5.7717     0.1006     0.0240 </r>
       <r>    -5.6446     0.1220     0.0382 </r>
       <r>    -5.5175     0.1452     0.0551 </r>
       <r>    -5.3904     0.1649     0.0749 </r>
       <r>    -5.2633     0.1743     0.0966 </r>
       <r>    -5.1362     0.1870     0.1194 </r>
       <r>    -5.0091     0.2032     0.1442 </r>
       <r>    -4.8821     0.2202     0.1711 </r>
       <r>    -4.7550     0.2379     0.2002 </r>
       <r>    -4.6279     0.2565     0.2316 </r>
       <r>    -4.5008     0.2736     0.2652 </r>
       <r>    -4.3737     0.2964     0.3014 </r>
       <r>    -4.2466     0.3230     0.3407 </r>
       <r>    -4.1195     0.3833     0.3848 </r>
       <r>    -3.9925     0.4395     0.4376 </r>
       <r>    -3.8654     0.4503     0.4946 </r>
       <r>    -3.7383     0.4149     0.5501 </r>
       <r>    -3.6112     0.4614     0.6055 </r>
       <r>    -3.4841     0.4221     0.6626 </r>
       <r>    -3.3570     0.3837     0.7137 </r>
       <r>    -3.2300     0.3553     0.7606 </r>
       <r>    -3.1029     0.3391     0.8045 </r>
       <r>    -2.9758     0.3271     0.8470 </r>
       <r>    -2.8487     0.3395     0.8895 </r>
       <r>    -2.7216     0.3161     0.9316 </r>
       <r>    -2.5945     0.2505     0.9680 </r>
       <r>    -2.4674     0.1084     0.9913 </r>
       <r>    -2.3404     0.0304     0.9985 </r>
       <r>    -2.2133     0.0000     1.0000 </r>
       <r>    -2.0862     0.0000     1.0000 </r>
       <r>    -1.9591     0.0000     1.0000 </r>
       <r>    -1.8320     0.0237     1.0012 </r>
       <r>    -1.7049     0.0617     1.0065 </r>
       <r>    -1.5779     0.1114     1.0174 </r>
       <r>    -1.4508     0.2950     1.0407 </r>
       <r>    -1.3237     0.3610     1.0813 </r>
       <r>    -1.1966     0.4107     1.1307 </r>
       <r>    -1.0695     0.6061     1.1890 </r>
       <r>    -0.9424     0.7954     1.2834 </r>
       <r>    -0.8153     0.6087     1.3737 </r>
       <r>    -0.6883     0.4191     1.4357 </r>
       <r>    -0.5612     0.3506     1.4843 </r>
       <r>    -0.4341     0.3080     1.5259 </r>
       <r>    -0.3070     0.2817     1.5633 </r>
       <r>    -0.1799     0.2608     1.5977 </r>
       <r>    -0.0528     0.2417     1.6296 </r>
       <r>     0.0742     0.2238     1.6592 </r>
       <r>     0.2013     0.2072     1.6866 </r>
       <r>     0.3284     0.1920     1.7119 </r>
       <r>     0.4555     0.1712     1.7353 </r>
       <r>     0.5826     0.1481     1.7554 </r>
       <r>     0.7097     0.1351     1.7733 </r>
       <r>     0.8368     0.1295     1.7901 </r>
       <r>     0.9638     0.1245     1.8063 </r>
       <r>     1.0909     0.1197     1.8218 </r>
       <r>     1.2180     0.1150     1.8367 </r>
       <r>     1.3451     0.1103     1.8510 </r>
       <r>     1.4722     0.1851     1.8677 </r>
       <r>     1.5993     0.5958     1.9135 </r>
       <r>     1.7264     0.6198     1.9876 </r>
       <r>     1.8534     0.6398     2.0686 </r>
       <r>     1.9805     0.5674     2.1463 </r>
       <r>     2.1076     0.5547     2.2207 </r>
       <r>     2.2347     0.5028     2.2850 </r>
       <r>     2.3618     0.4933     2.3483 </r>
       <r>     2.4889     0.4803     2.4102 </r>
       <r>     2.6159     0.7895     2.5026 </r>
       <r>     2.7430     0.6910     2.5860 </r>
       <r>     2.8701     0.7950     2.6800 </r>
       <r>     2.9972     0.8238     2.7880 </r>
       <r>     3.1243     0.7660     2.8861 </r>
       <r>     3.2514     0.7533     2.9827 </r>
       <r>     3.3785     0.7515     3.0777 </r>
       <r>     3.5055     0.7472     3.1731 </r>
       <r>     3.6326     0.7375     3.2675 </r>
       <r>     3.7597     0.7172     3.3601 </r>
       <r>     3.8868     0.6944     3.4498 </r>
       <r>     4.0139     0.6745     3.5364 </r>
       <r>     4.1410     0.6825     3.6229 </r>
       <r>     4.2680     0.6169     3.7059 </r>
       <r>     4.3951     0.5087     3.7779 </r>
       <r>     4.5222     0.3935     3.8343 </r>
       <r>     4.6493     0.2950     3.8784 </r>
       <r>     4.7764     0.2264     3.9107 </r>
       <r>     4.9035     0.1897     3.9371 </r>
       <r>     5.0306     0.1606     3.9593 </r>
       <r>     5.1576     0.1391     3.9782 </r>
       <r>     5.2847     0.0651     3.9929 </r>
       <r>     5.4118     0.0243     3.9984 </r>
       <r>     5.5389     0.0032     3.9999 </r>
       <r>     5.6660     0.0000     4.0000 </r>
       <r>     5.7931     0.0000     4.0000 </r>
       <r>     5.9201     0.0000     4.0000 </r>
       <r>     6.0472     0.0000     4.0000 </r>
       <r>     6.1743     0.0000     4.0000 </r>
       <r>     6.3014     0.0268     4.0011 </r>
       <r>     6.4285     0.0581     4.0066 </r>
       <r>     6.5556     0.0809     4.0153 </r>
       <r>     6.6827     0.1202     4.0282 </r>
       <r>     6.8097     0.1490     4.0453 </r>
       <r>     6.9368     0.1829     4.0662 </r>
       <r>     7.0639     0.2223     4.0919 </r>
       <r>     7.1910     0.2760     4.1232 </r>
       <r>     7.3181     0.3584     4.1632 </r>
       <r>     7.4452     0.4636     4.2152 </r>
       <r>     7.5723     0.6145     4.2829 </r>
       <r>     7.6993     0.8478     4.3750 </r>
       <r>     7.8264     0.9766     4.4934 </r>
       <r>     7.9535     1.0402     4.6219 </r>
       <r>     8.0806     0.9893     4.7521 </r>
       <r>     8.2077     0.9477     4.8747 </r>
       <r>     8.3348     0.7656     4.9824 </r>
       <r>     8.4618     0.5536     5.0647 </r>
       <r>     8.5889     0.3626     5.1214 </r>
       <r>     8.7160     0.2775     5.1583 </r>
       <r>     8.8431     0.3771     5.1998 </r>
       <r>     8.9702     0.4901     5.2548 </r>
       <r>     9.0973     0.7703     5.3304 </r>
       <r>     9.2244     1.3937     5.4669 </r>
       <r>     9.3514     1.6680     5.6787 </r>
       <r>     9.4785     0.8121     5.8700 </r>
       <r>     9.6056     0.6896     5.9603 </r>
       <r>     9.7327     0.6802     6.0471 </r>
       <r>     9.8598     0.6527     6.1321 </r>
       <r>     9.9869     0.5935     6.2116 </r>
       <r>    10.1139     0.5139     6.2821 </r>
       <r>    10.2410     0.4867     6.3445 </r>
       <r>    10.3681     0.4877     6.4068 </r>
       <r>    10.4952     0.4771     6.4692 </r>
       <r>    10.6223     0.4240     6.5266 </r>
       <r>    10.7494     0.3750     6.5772 </r>
       <r>    10.8765     0.3491     6.6229 </r>
       <r>    11.0035     0.3464     6.6669 </r>
       <r>    11.1306     0.6910     6.7317 </r>
       <r>    11.2577     0.6880     6.8227 </r>
       <r>    11.3848     0.6203     6.9049 </r>
       <r>    11.5119     0.5751     6.9789 </r>
       <r>    11.6390     0.6023     7.0532 </r>
       <r>    11.7660     0.6851     7.1343 </r>
       <r>    11.8931     0.8133     7.2294 </r>
       <r>    12.0202     0.8959     7.3384 </r>
       <r>    12.1473     0.7115     7.4518 </r>
       <r>    12.2744     0.5821     7.5293 </r>
       <r>    12.4015     0.5796     7.6023 </r>
       <r>    12.5286     0.5793     7.6763 </r>
       <r>    12.6556     0.5657     7.7491 </r>
       <r>    12.7827     0.5485     7.8199 </r>
       <r>    12.9098     0.5386     7.8890 </r>
       <r>    13.0369     0.5218     7.9565 </r>
       <r>    13.1640     0.5020     8.0215 </r>
       <r>    13.2911     0.4831     8.0841 </r>
       <r>    13.4182     0.4915     8.1450 </r>
       <r>    13.5452     0.5023     8.2088 </r>
       <r>    13.6723     0.4686     8.2706 </r>
       <r>    13.7994     0.4625     8.3288 </r>
       <r>    13.9265     0.5883     8.3933 </r>
       <r>    14.0536     0.7340     8.4783 </r>
       <r>    14.1807     0.7162     8.5682 </r>
       <r>    14.3077     0.7421     8.6605 </r>
       <r>    14.4348     0.7986     8.7592 </r>
       <r>    14.5619     0.8563     8.8604 </r>
       <r>    14.6890     1.0643     8.9952 </r>
       <r>    14.8161     0.8085     9.1018 </r>
       <r>    14.9432     0.7558     9.2013 </r>
       <r>    15.0703     0.7366     9.2949 </r>
       <r>    15.1973     0.7569     9.3901 </r>
       <r>    15.3244     0.7490     9.4861 </r>
       <r>    15.4515     0.7113     9.5793 </r>
       <r>    15.5786     0.7100     9.6686 </r>
       <r>    15.7057     0.6619     9.7568 </r>
       <r>    15.8328     0.6584     9.8427 </r>
       <r>    15.9598     0.5861     9.9202 </r>
       <r>    16.0869     0.5731     9.9932 </r>
       <r>    16.2140     0.5974    10.0671 </r>
       <r>    16.3411     0.6584    10.1467 </r>
       <r>    16.4682     0.6137    10.2313 </r>
       <r>    16.5953     0.5582    10.3036 </r>
       <r>    16.7224     0.4242    10.3654 </r>
       <r>    16.8494     0.3731    10.4156 </r>
       <r>    16.9765     0.3648    10.4620 </r>
       <r>    17.1036     0.4053    10.5104 </r>
       <r>    17.2307     0.4568    10.5656 </r>
       <r>    17.3578     0.4867    10.6257 </r>
       <r>    17.4849     0.4956    10.6885 </r>
       <r>    17.6119     0.5011    10.7508 </r>
       <r>    17.7390     0.9785    10.8416 </r>
       <r>    17.8661     0.9625    10.9655 </r>
       <r>    17.9932     0.8990    11.0842 </r>
       <r>    18.1203     0.8663    11.1939 </r>
       <r>    18.2474     0.8747    11.3062 </r>
       <r>    18.3745     0.8627    11.4162 </r>
       <r>    18.5015     0.8432    11.5248 </r>
       <r>    18.6286     0.8063    11.6298 </r>
       <r>    18.7557     0.8854    11.7350 </r>
       <r>    18.8828     0.9237    11.8526 </r>
       <r>    19.0099     0.9648    11.9679 </r>
       <r>    19.1370     0.9481    12.0914 </r>
       <r>    19.2641     1.0424    12.2137 </r>
       <r>    19.3911     1.0930    12.3513 </r>
       <r>    19.5182     1.0670    12.4887 </r>
       <r>    19.6453     1.0866    12.6255 </r>
       <r>    19.7724     0.9863    12.7577 </r>
       <r>    19.8995     0.8520    12.8749 </r>
       <r>    20.0266     0.6512    12.9682 </r>
       <r>    20.1536     0.5934    13.0458 </r>
       <r>    20.2807     0.5613    13.1192 </r>
[...]
       </set>
       <set comment="band 12">
        <r>  0.0000  0.0297  0.0280  0.0149  0.0000  0.0000  0.0000  0.0000  0.0000 </r>
        <r>  0.0000  0.0297  0.0280  0.0149  0.0000  0.0000  0.0000  0.0000  0.0000 </r>
       </set>
       <set comment="band 13">
        <r>  0.0154  0.0750  0.0000  0.1501  0.0000  0.0000  0.0000  0.0000  0.0000 </r>
        <r>  0.0154  0.0750  0.0000  0.1501  0.0000  0.0000  0.0000  0.0000  0.0000 </r>
       </set>
       <set comment="band 14">
        <r>  0.0000  0.0000  0.0000  0.0000  0.0000  0.0000  0.0000  0.0000  0.0000 </r>
        <r>  0.0000  0.0000  0.0000  0.0000  0.0000  0.0000  0.0000  0.0000  0.0000 </r>
       </set>
       <set comment="band 15">
        <r>  0.0001  0.0013  0.0000  0.0024  0.0000  0.0000  0.0000  0.0000  0.0000 </r>
        <r>  0.0001  0.0012  0.0000  0.0025  0.0000  0.0000  0.0000  0.0000  0.0000 </r>
       </set>
       <set comment="band 16">
        <r>  0.0000  0.0166  0.0288  0.0083  0.0000  0.0000  0.0000  0.0000  0.0000 </r>
        <r>  0.0000  0.0166  0.0288  0.0083  0.0000  0.0000  0.0000  0.0000  0.0000 </r>
       </set>
      </set>
      <set comment="kpoint 16">
       <set comment="band 1">
        <r>  0.2024  0.0139  0.0000  0.0252  0.0000  0.0000  0.0000  0.0000  0.0000 </r>
        <r>  0.2024  0.0139  0.0000  0.0252  0.0000  0.0000  0.0000  0.0000  0.0000 </r>
       </set>
       <set comment="band 2">
        <r>  0.1902  0.0169  0.0000  0.0302  0.0000  0.0000  0.0000  0.0000  0.0000 </r>
        <r>  0.1902  0.0169  0.0000  0.0302  0.0000  0.0000  0.0000  0.0000  0.0000 </r>
       </set>
       <set comment="band 3">
        <r>  0.0021  0.1041  0.0000  0.0620  0.0000  0.0000  0.0000  0.0000  0.0000 </r>
        <r>  0.0021  0.1041  0.0000  0.0620  0.0000  0.0000  0.0000  0.0000  0.0000 </r>
       </set>
       <set comment="band 4">
        <r>  0.0000  0.0000  0.1959  0.0000  0.0000  0.0000  0.0000  0.0000  0.0000 </r>
        <r>  0.0000  0.0000  0.1959  0.0000  0.0000  0.0000  0.0000  0.0000  0.0000 </r>
       </set>
       <set comment="band 5">
        <r>  0.0514  0.0129  0.0000  0.0252  0.0000  0.0000  0.0000  0.0000  0.0000 </r>
        <r>  0.0514  0.0129  0.0000  0.0252  0.0000  0.0000  0.0000  0.0000  0.0000 </r>
       </set>
       <set comment="band 6">
        <r>  0.0377  0.0383  0.0000  0.0311  0.0000  0.0000  0.0000  0.0000  0.0000 </r>
        <r>  0.0377  0.0383  0.0000  0.0311  0.0000  0.0000  0.0000  0.0000  0.0000 </r>
       </set>
       <set comment="band 7">
        <r>  0.0000  0.0000  0.1792  0.0000  0.0000  0.0000  0.0000  0.0000  0.0000 </r>
        <r>  0.0000  0.0000  0.1792  0.0000  0.0000  0.0000  0.0000  0.0000  0.0000 </r>
       </set>
       <set comment="band 8">
        <r>  0.0278  0.1311  0.0000  0.0783  0.0000  0.0000  0.0000  0.0000  0.0000 </r>
        <r>  0.0278  0.1311  0.0000  0.0783  0.0000  0.0000  0.0000  0.0000  0.0000 </r>
       </set>
       <set comment="band 9">
        <r>  0.0229  0.0278  0.0000  0.0528  0.0000  0.0000  0.0000  0.0000  0.0000 </r>
        <r>  0.0229  0.0278  0.0000  0.0528  0.0000  0.0000  0.0000  0.0000  0.0000 </r>
       </set>
       <set comment="band 10">
        <r>  0.0000  0.0000  0.0120  0.0000  0.0000  0.0000  0.0000  0.0000  0.0000 </r>
        <r>  0.0000  0.0000  0.0120  0.0000  0.0000  0.0000  0.0000  0.0000  0.0000 </r>
       </set>
       <set comment="band 11">
        <r>  0.0297  0.0927  0.0000  0.1379  0.0000  0.0000  0.0000  0.0000  0.0000 </r>
        <r>  0.0297  0.0927  0.0000  0.1379  0.0000  0.0000  0.0000  0.0000  0.0000 </r>
       </set>
       <set comment="band 12">
        <r>  0.0000  0.0000  0.0000  0.0000  0.0000  0.0000  0.0000  0.0000  0.0000 </r>
        <r>  0.0000  0.0000  0.0000  0.0000  0.0000  0.0000  0.0000  0.0000  0.0000 </r>
       </set>
       <set comment="band 13">
        <r>  0.0000  0.0000  0.0651  0.0000  0.0000  0.0000  0.0000  0.0000  0.0000 </r>
        <r>  0.0000  0.0000  0.0651  0.0000  0.0000  0.0000  0.0000  0.0000  0.0000 </r>
       </set>
       <set comment="band 14">
        <r>  0.0341  0.0522  0.0000  0.0919  0.0000  0.0000  0.0000  0.0000  0.0000 </r>
        <r>  0.0341  0.0522  0.0000  0.0919  0.0000  0.0000  0.0000  0.0000  0.0000 </r>
       </set>
       <set comment="band 15">
        <r>  0.0134  0.0049  0.0000  0.0032  0.0000  0.0000  0.0000  0.0000  0.0000 </r>
        <r>  0.0134  0.0049  0.0000  0.0032  0.0000  0.0000  0.0000  0.0000  0.0000 </r>
       </set>
       <set comment="band 16">
        <r>  0.0057  0.0171  0.0000  0.0106  0.0000  0.0000  0.0000  0.0000  0.0000 </r>
        <r>  0.0057  0.0171  0.0000  0.0106  0.0000  0.0000  0.0000  0.0000  0.0000 </r>
       </set>
      </set>
      <set comment="kpoint 17">
       <set comment="band 1">
        <r>  0.2064  0.0017  0.0017  0.0134  0.0000  0.0000  0.0000  0.0000  0.0000 </r>
        <r>  0.2064  0.0017  0.0017  0.0134  0.0000  0.0000  0.0000  0.0000  0.0000 </r>
       </set>
       <set comment="band 2">
        <r>  0.1567  0.0121  0.0200  0.0540  0.0000  0.0000  0.0000  0.0000  0.0000 </r>
        <r>  0.1567  0.0121  0.0200  0.0540  0.0000  0.0000  0.0000  0.0000  0.0000 </r>
       </set>
       <set comment="band 3">
        <r>  0.0113  0.0328  0.0712  0.0590  0.0000  0.0000  0.0000  0.0000  0.0000 </r>
        <r>  0.0113  0.0328  0.0712  0.0590  0.0000  0.0000  0.0000  0.0000  0.0000 </r>
       </set>
       <set comment="band 4">
        <r>  0.0064  0.1150  0.0665  0.0095  0.0000  0.0000  0.0000  0.0000  0.0000 </r>
        <r>  0.0064  0.1150  0.0665  0.0095  0.0000  0.0000  0.0000  0.0000  0.0000 </r>
       </set>
       <set comment="band 5">
        <r>  0.0284  0.0591  0.0268  0.0192  0.0000  0.0000  0.0000  0.0000  0.0000 </r>
        <r>  0.0284  0.0591  0.0268  0.0192  0.0000  0.0000  0.0000  0.0000  0.0000 </r>
       </set>
       <set comment="band 6">
        <r>  0.0640  0.0094  0.0152  0.0360  0.0000  0.0000  0.0000  0.0000  0.0000 </r>
        <r>  0.0640  0.0094  0.0152  0.0360  0.0000  0.0000  0.0000  0.0000  0.0000 </r>
       </set>
       <set comment="band 7">
        <r>  0.0278  0.0439  0.0477  0.0085  0.0000  0.0000  0.0000  0.0000  0.0000 </r>
        <r>  0.0278  0.0439  0.0477  0.0085  0.0000  0.0000  0.0000  0.0000  0.0000 </r>
       </set>
       <set comment="band 8">
        <r>  0.0064  0.0675  0.0697  0.0137  0.0000  0.0000  0.0000  0.0000  0.0000 </r>
        <r>  0.0064  0.0675  0.0697  0.0137  0.0000  0.0000  0.0000  0.0000  0.0000 </r>
       </set>
       <set comment="band 9">
        <r>  0.0411  0.0061  0.0053  0.0458  0.0000  0.0000  0.0000  0.0000  0.0000 </r>
        <r>  0.0411  0.0061  0.0053  0.0458  0.0000  0.0000  0.0000  0.0000  0.0000 </r>
       </set>
       <set comment="band 10">
        <r>  0.0005  0.0133  0.0319  0.0926  0.0000  0.0000  0.0000  0.0000  0.0000 </r>
        <r>  0.0005  0.0133  0.0319  0.0926  0.0000  0.0000  0.0000  0.0000  0.0000 </r>
       </set>
       <set comment="band 11">
        <r>  0.0492  0.0084  0.0300  0.0739  0.0000  0.0000  0.0000  0.0000  0.0000 </r>
        <r>  0.0492  0.0084  0.0300  0.0739  0.0000  0.0000  0.0000  0.0000  0.0000 </r>
       </set>
       <set comment="band 12">
        <r>  0.0116  0.0010  0.0019  0.0009  0.0000  0.0000  0.0000  0.0000  0.0000 </r>
        <r>  0.0116  0.0010  0.0019  0.0009  0.0000  0.0000  0.0000  0.0000  0.0000 </r>
       </set>
       <set comment="band 13">
        <r>  0.0334  0.0126  0.0034  0.0034  0.0000  0.0000  0.0000  0.0000  0.0000 </r>
        <r>  0.0334  0.0126  0.0034  0.0034  0.0000  0.0000  0.0000  0.0000  0.0000 </r>
       </set>
       <set comment="band 14">
        <r>  0.0004  0.0024  0.0148  0.0514  0.0000  0.0000  0.0000  0.0000  0.0000 </r>
        <r>  0.0004  0.0024  0.0148  0.0514  0.0000  0.0000  0.0000  0.0000  0.0000 </r>
       </set>
       <set comment="band 15">
        <r>  0.0000  0.0269  0.0386  0.0118  0.0000  0.0000  0.0000  0.0000  0.0000 </r>
        <r>  0.0000  0.0269  0.0386  0.0118  0.0000  0.0000  0.0000  0.0000  0.0000 </r>
       </set>
       <set comment="band 16">
        <r>  0.0238  0.0276  0.0023  0.0161  0.0000  0.0000  0.0000  0.0000  0.0000 </r>
        <r>  0.0241  0.0277  0.0021  0.0166  0.0000  0.0000  0.0000  0.0000  0.0000 </r>
       </set>
      </set>
      <set comment="kpoint 18">
       <set comment="band 1">
        <r>  0.2116  0.0036  0.0021  0.0175  0.0000  0.0000  0.0000  0.0000  0.0000 </r>
        <r>  0.2116  0.0036  0.0021  0.0175  0.0000  0.0000  0.0000  0.0000  0.0000 </r>
       </set>
       <set comment="band 2">
        <r>  0.1541  0.0107  0.0035  0.0592  0.0000  0.0000  0.0000  0.0000  0.0000 </r>
        <r>  0.1541  0.0107  0.0035  0.0592  0.0000  0.0000  0.0000  0.0000  0.0000 </r>
       </set>
       <set comment="band 3">
        <r>  0.0265  0.0614  0.0512  0.0371  0.0000  0.0000  0.0000  0.0000  0.0000 </r>
        <r>  0.0265  0.0614  0.0512  0.0371  0.0000  0.0000  0.0000  0.0000  0.0000 </r>
       </set>
       <set comment="band 4">
        <r>  0.0021  0.0709  0.1038  0.0101  0.0000  0.0000  0.0000  0.0000  0.0000 </r>
        <r>  0.0021  0.0709  0.1038  0.0101  0.0000  0.0000  0.0000  0.0000  0.0000 </r>
       </set>
       <set comment="band 5">
        <r>  0.0382  0.0286  0.0428  0.0132  0.0000  0.0000  0.0000  0.0000  0.0000 </r>
        <r>  0.0382  0.0286  0.0428  0.0132  0.0000  0.0000  0.0000  0.0000  0.0000 </r>
       </set>
       <set comment="band 6">
        <r>  0.0402  0.0443  0.0400  0.0029  0.0000  0.0000  0.0000  0.0000  0.0000 </r>
        <r>  0.0402  0.0443  0.0400  0.0029  0.0000  0.0000  0.0000  0.0000  0.0000 </r>
       </set>
       <set comment="band 7">
        <r>  0.0321  0.0561  0.0007  0.0390  0.0000  0.0000  0.0000  0.0000  0.0000 </r>
        <r>  0.0321  0.0561  0.0007  0.0390  0.0000  0.0000  0.0000  0.0000  0.0000 </r>
       </set>
       <set comment="band 8">
        <r>  0.0165  0.0615  0.0591  0.0008  0.0000  0.0000  0.0000  0.0000  0.0000 </r>
        <r>  0.0165  0.0615  0.0591  0.0008  0.0000  0.0000  0.0000  0.0000  0.0000 </r>
       </set>
       <set comment="band 9">
        <r>  0.0133  0.0102  0.0331  0.0739  0.0000  0.0000  0.0000  0.0000  0.0000 </r>
        <r>  0.0133  0.0102  0.0331  0.0739  0.0000  0.0000  0.0000  0.0000  0.0000 </r>
       </set>
       <set comment="band 10">
        <r>  0.0168  0.0015  0.0164  0.0679  0.0000  0.0000  0.0000  0.0000  0.0000 </r>
        <r>  0.0168  0.0015  0.0164  0.0679  0.0000  0.0000  0.0000  0.0000  0.0000 </r>
       </set>
       <set comment="band 11">
        <r>  0.0183  0.0087  0.0115  0.0192  0.0000  0.0000  0.0000  0.0000  0.0000 </r>
        <r>  0.0183  0.0087  0.0115  0.0192  0.0000  0.0000  0.0000  0.0000  0.0000 </r>
       </set>
       <set comment="band 12">
        <r>  0.0204  0.0110  0.0366  0.0556  0.0000  0.0000  0.0000  0.0000  0.0000 </r>
        <r>  0.0204  0.0110  0.0366  0.0556  0.0000  0.0000  0.0000  0.0000  0.0000 </r>
       </set>
       <set comment="band 13">
        <r>  0.0186  0.0114  0.0267  0.0850  0.0000  0.0000  0.0000  0.0000  0.0000 </r>
        <r>  0.0186  0.0114  0.0267  0.0850  0.0000  0.0000  0.0000  0.0000  0.0000 </r>
       </set>
       <set comment="band 14">
        <r>  0.0139  0.0023  0.0057  0.0350  0.0000  0.0000  0.0000  0.0000  0.0000 </r>
        <r>  0.0139  0.0023  0.0057  0.0349  0.0000  0.0000  0.0000  0.0000  0.0000 </r>
       </set>
       <set comment="band 15">
        <r>  0.0042  0.0996  0.0061  0.0122  0.0000  0.0000  0.0000  0.0000  0.0000 </r>
        <r>  0.0041  0.0997  0.0061  0.0122  0.0000  0.0000  0.0000  0.0000  0.0000 </r>
       </set>
       <set comment="band 16">
        <r>  0.0221  0.0024  0.0039  0.0329  0.0000  0.0000  0.0000  0.0000  0.0000 </r>
        <r>  0.0222  0.0024  0.0039  0.0330  0.0000  0.0000  0.0000  0.0000  0.0000 </r>
       </set>
      </set>
      <set comment="kpoint 19">
       <set comment="band 1">
        <r>  0.2028  0.0076  0.0020  0.0226  0.0000  0.0000  0.0000  0.0000  0.0000 </r>
        <r>  0.2028  0.0076  0.0020  0.0226  0.0000  0.0000  0.0000  0.0000  0.0000 </r>
       </set>
       <set comment="band 2">
        <r>  0.1922  0.0146  0.0060  0.0337  0.0000  0.0000  0.0000  0.0000  0.0000 </r>
        <r>  0.1922  0.0146  0.0060  0.0337  0.0000  0.0000  0.0000  0.0000  0.0000 </r>
       </set>
       <set comment="band 3">
        <r>  0.0062  0.0314  0.0728  0.0594  0.0000  0.0000  0.0000  0.0000  0.0000 </r>
        <r>  0.0062  0.0314  0.0728  0.0594  0.0000  0.0000  0.0000  0.0000  0.0000 </r>
       </set>
       <set comment="band 4">
        <r>  0.0000  0.0895  0.0732  0.0104  0.0000  0.0000  0.0000  0.0000  0.0000 </r>
        <r>  0.0000  0.0895  0.0732  0.0104  0.0000  0.0000  0.0000  0.0000  0.0000 </r>
       </set>
       <set comment="band 5">
        <r>  0.0362  0.0468  0.0248  0.0089  0.0000  0.0000  0.0000  0.0000  0.0000 </r>
        <r>  0.0362  0.0468  0.0248  0.0089  0.0000  0.0000  0.0000  0.0000  0.0000 </r>
       </set>
       <set comment="band 6">
        <r>  0.0370  0.0046  0.0209  0.0373  0.0000  0.0000  0.0000  0.0000  0.0000 </r>
        <r>  0.0370  0.0046  0.0209  0.0373  0.0000  0.0000  0.0000  0.0000  0.0000 </r>
       </set>
       <set comment="band 7">
        <r>  0.0316  0.0627  0.0448  0.0073  0.0000  0.0000  0.0000  0.0000  0.0000 </r>
        <r>  0.0316  0.0627  0.0448  0.0073  0.0000  0.0000  0.0000  0.0000  0.0000 </r>
       </set>
       <set comment="band 8">
        <r>  0.0164  0.0286  0.0734  0.0656  0.0000  0.0000  0.0000  0.0000  0.0000 </r>
        <r>  0.0164  0.0286  0.0734  0.0656  0.0000  0.0000  0.0000  0.0000  0.0000 </r>
       </set>
       <set comment="band 9">
        <r>  0.0003  0.0443  0.0287  0.0188  0.0000  0.0000  0.0000  0.0000  0.0000 </r>
        <r>  0.0003  0.0443  0.0287  0.0188  0.0000  0.0000  0.0000  0.0000  0.0000 </r>
       </set>
       <set comment="band 10">
        <r>  0.0286  0.0100  0.0071  0.0758  0.0000  0.0000  0.0000  0.0000  0.0000 </r>
        <r>  0.0286  0.0100  0.0071  0.0758  0.0000  0.0000  0.0000  0.0000  0.0000 </r>
       </set>
       <set comment="band 11">
        <r>  0.0069  0.0390  0.0533  0.0152  0.0000  0.0000  0.0000  0.0000  0.0000 </r>
        <r>  0.0069  0.0390  0.0533  0.0152  0.0000  0.0000  0.0000  0.0000  0.0000 </r>
       </set>
       <set comment="band 12">
        <r>  0.0057  0.0474  0.0048  0.0672  0.0000  0.0000  0.0000  0.0000  0.0000 </r>
        <r>  0.0057  0.0474  0.0048  0.0672  0.0000  0.0000  0.0000  0.0000  0.0000 </r>
       </set>
       <set comment="band 13">
        <r>  0.0286  0.0078  0.0214  0.0846  0.0000  0.0000  0.0000  0.0000  0.0000 </r>
        <r>  0.0286  0.0078  0.0214  0.0846  0.0000  0.0000  0.0000  0.0000  0.0000 </r>
       </set>
       <set comment="band 14">
        <r>  0.0000  0.0060  0.0088  0.0067  0.0000  0.0000  0.0000  0.0000  0.0000 </r>
        <r>  0.0000  0.0060  0.0088  0.0067  0.0000  0.0000  0.0000  0.0000  0.0000 </r>
       </set>
       <set comment="band 15">
        <r>  0.0206  0.0194  0.0077  0.0041  0.0000  0.0000  0.0000  0.0000  0.0000 </r>
        <r>  0.0206  0.0194  0.0077  0.0041  0.0000  0.0000  0.0000  0.0000  0.0000 </r>
       </set>
       <set comment="band 16">
        <r>  0.0262  0.0211  0.0056  0.0261  0.0000  0.0000  0.0000  0.0000  0.0000 </r>
        <r>  0.0262  0.0211  0.0056  0.0261  0.0000  0.0000  0.0000  0.0000  0.0000 </r>
       </set>
      </set>
      <set comment="kpoint 20">
       <set comment="band 1">
        <r>  0.2110  0.0139  0.0032  0.0153  0.0000  0.0000  0.0000  0.0000  0.0000 </r>
        <r>  0.2110  0.0139  0.0032  0.0153  0.0000  0.0000  0.0000  0.0000  0.0000 </r>
       </set>
       <set comment="band 2">
        <r>  0.1905  0.0210  0.0029  0.0276  0.0000  0.0000  0.0000  0.0000  0.0000 </r>
        <r>  0.1905  0.0210  0.0029  0.0276  0.0000  0.0000  0.0000  0.0000  0.0000 </r>
       </set>
       <set comment="band 3">
        <r>  0.0008  0.0855  0.0005  0.0682  0.0000  0.0000  0.0000  0.0000  0.0000 </r>
        <r>  0.0008  0.0855  0.0005  0.0682  0.0000  0.0000  0.0000  0.0000  0.0000 </r>
       </set>
       <set comment="band 4">
        <r>  0.0026  0.0074  0.1499  0.0146  0.0000  0.0000  0.0000  0.0000  0.0000 </r>
        <r>  0.0026  0.0074  0.1499  0.0146  0.0000  0.0000  0.0000  0.0000  0.0000 </r>
       </set>
       <set comment="band 5">
        <r>  0.0357  0.0112  0.0456  0.0191  0.0000  0.0000  0.0000  0.0000  0.0000 </r>
        <r>  0.0357  0.0112  0.0456  0.0191  0.0000  0.0000  0.0000  0.0000  0.0000 </r>
       </set>
       <set comment="band 6">
        <r>  0.0034  0.0416  0.0228  0.0212  0.0000  0.0000  0.0000  0.0000  0.0000 </r>
        <r>  0.0034  0.0416  0.0228  0.0212  0.0000  0.0000  0.0000  0.0000  0.0000 </r>
       </set>
       <set comment="band 7">
        <r>  0.0456  0.0270  0.0564  0.0394  0.0000  0.0000  0.0000  0.0000  0.0000 </r>
        <r>  0.0456  0.0270  0.0564  0.0394  0.0000  0.0000  0.0000  0.0000  0.0000 </r>
       </set>
       <set comment="band 8">
        <r>  0.0381  0.0531  0.0011  0.0414  0.0000  0.0000  0.0000  0.0000  0.0000 </r>
        <r>  0.0381  0.0531  0.0011  0.0414  0.0000  0.0000  0.0000  0.0000  0.0000 </r>
       </set>
       <set comment="band 9">
        <r>  0.0065  0.0229  0.0708  0.0456  0.0000  0.0000  0.0000  0.0000  0.0000 </r>
        <r>  0.0065  0.0229  0.0708  0.0456  0.0000  0.0000  0.0000  0.0000  0.0000 </r>
       </set>
       <set comment="band 10">
        <r>  0.0181  0.0571  0.0106  0.0293  0.0000  0.0000  0.0000  0.0000  0.0000 </r>
        <r>  0.0181  0.0571  0.0106  0.0293  0.0000  0.0000  0.0000  0.0000  0.0000 </r>
       </set>
       <set comment="band 11">
        <r>  0.0112  0.0438  0.0061  0.0737  0.0000  0.0000  0.0000  0.0000  0.0000 </r>
        <r>  0.0112  0.0438  0.0061  0.0737  0.0000  0.0000  0.0000  0.0000  0.0000 </r>
       </set>
       <set comment="band 12">
        <r>  0.0083  0.0290  0.0584  0.0300  0.0000  0.0000  0.0000  0.0000  0.0000 </r>
        <r>  0.0083  0.0290  0.0584  0.0300  0.0000  0.0000  0.0000  0.0000  0.0000 </r>
       </set>
       <set comment="band 13">
        <r>  0.0073  0.0160  0.0011  0.0139  0.0000  0.0000  0.0000  0.0000  0.0000 </r>
        <r>  0.0073  0.0160  0.0011  0.0139  0.0000  0.0000  0.0000  0.0000  0.0000 </r>
       </set>
       <set comment="band 14">
        <r>  0.0263  0.0040  0.0004  0.0022  0.0000  0.0000  0.0000  0.0000  0.0000 </r>
        <r>  0.0262  0.0039  0.0004  0.0022  0.0000  0.0000  0.0000  0.0000  0.0000 </r>
       </set>
       <set comment="band 15">
        <r>  0.0030  0.0621  0.0001  0.0631  0.0000  0.0000  0.0000  0.0000  0.0000 </r>
        <r>  0.0030  0.0621  0.0001  0.0631  0.0000  0.0000  0.0000  0.0000  0.0000 </r>
       </set>
       <set comment="band 16">
        <r>  0.0026  0.0248  0.0361  0.0603  0.0000  0.0000  0.0000  0.0000  0.0000 </r>
        <r>  0.0046  0.0211  0.0376  0.0572  0.0000  0.0000  0.0000  0.0000  0.0000 </r>
       </set>
      </set>
     </set>
    </set>
   </array>
  </projected>
 </calculation>
 <structure name="finalpos" >
  <crystal>
   <varray name="basis" >
    <v>       3.34967443       0.00000000       1.93393516 </v>
    <v>       1.11655814       3.15810459       1.93393516 </v>
    <v>       0.00000000       0.00000000       3.86787032 </v>
   </varray>
   <i name="volume">     40.91673888 </i>
   <varray name="rec_basis" >
    <v>       0.29853648      -0.10554854       0.00000000 </v>
    <v>       0.00000000       0.31664562       0.00000000 </v>
    <v>      -0.14926824      -0.10554854       0.25854021 </v>
   </varray>
  </crystal>
  <varray name="positions" >
   <v>       0.87500000       0.87500000       0.87500000 </v>
   <v>       0.12500000       0.12500000       0.12500000 </v>
  </varray>
 </structure>
</modeling>
