unknown system                          
            1
     3.349674    0.000000    1.933935
     1.116558    3.158105    1.933935
     0.000000    0.000000    3.867870
   Si
     2
Direct configuration=     1
   0.87500000  0.87500000  0.87500000
   0.12500000  0.12500000  0.12500000
